
  ___ ___ ___ _ _ _  
 |   |   |_  | | | | 
 | | | | | . | | | | 
 |__ |  _|___|_____|  20.10.0
 |___|_|             

User:   ubuntu@ip-172-31-71-9
Date:   Wed Oct 28 07:20:20 2020
Arch:   x86_64
Pid:    8297
Python: 3.8.3
gpaw:   /home/ubuntu/anaconda3/lib/python3.8/site-packages/gpaw
_gpaw:  /home/ubuntu/anaconda3/lib/python3.8/site-packages/
        _gpaw.cpython-38-x86_64-linux-gnu.so
ase:    /home/ubuntu/anaconda3/lib/python3.8/site-packages/ase (version 3.20.1)
numpy:  /home/ubuntu/anaconda3/lib/python3.8/site-packages/numpy (version 1.18.5)
scipy:  /home/ubuntu/anaconda3/lib/python3.8/site-packages/scipy (version 1.5.0)
libxc:  3.0.0
units:  Angstrom and eV
cores: 8
OMP_NUM_THREADS: 1

Input parameters:
  convergence: {bands: CBM+2.0,
                density: 0.0001,
                eigenstates: 4e-08,
                energy: 0.0005,
                forces: inf}
  kpts: {gamma: True,
         size: (4, 4, 4)}
  mode: {ecut: 900.0000000000001,
         gammacentered: False,
         name: pw}
  occupations: {fixmagmom: False,
                name: fermi-dirac,
                width: 0.05}
  xc: PBE

System changes: positions, numbers, cell, pbc, initial_charges, initial_magmoms 

Initialize ...

C-setup:
  name: Carbon
  id: 4aa54d4b901d75f77cc0ea3eec22967b
  Z: 6.0
  valence: 4
  core: 2
  charge: 0.0
  file: /home/ubuntu/gpaw_dataset/gpaw-setups-0.9.20000/C.PBE.gz
  compensation charges: gauss, rc=0.20, lmax=2
  cutoffs: 1.14(filt), 1.14(core),
  valence states:
                energy  radius
    2s(2.00)   -13.751   0.635
    2p(2.00)    -5.284   0.635
    *s          13.461   0.635
    *p          21.927   0.635
    *d           0.000   0.635

  Using partial waves for C as LCAO basis

Cs-setup:
  name: Caesium
  id: fa822afd343f47335d508b9ee4f394c3
  Z: 55.0
  valence: 9
  core: 46
  charge: 0.0
  file: /home/ubuntu/gpaw_dataset/gpaw-setups-0.9.20000/Cs.PBE.gz
  compensation charges: gauss, rc=0.33, lmax=2
  cutoffs: 2.06(filt), 2.51(core),
  valence states:
                energy  radius
    5s(2.00)   -26.706   1.164
    6s(1.00)    -2.085   1.164
    5p(6.00)   -13.523   1.058
    *p          13.688   1.058
    *d           0.000   1.058

  Using partial waves for Cs as LCAO basis

H-setup:
  name: Hydrogen
  id: d65de229564ff8ea4db303e23b6d1ecf
  Z: 1.0
  valence: 1
  core: 0
  charge: 0.0
  file: /home/ubuntu/gpaw_dataset/gpaw-setups-0.9.20000/H.PBE.gz
  compensation charges: gauss, rc=0.15, lmax=2
  cutoffs: 0.85(filt), 0.53(core),
  valence states:
                energy  radius
    1s(1.00)    -6.494   0.476
    *s          20.717   0.476
    *p           0.000   0.476

  Using partial waves for H as LCAO basis

I-setup:
  name: Iodine
  id: 91405a398e4dfe788ff04f57531604ec
  Z: 53.0
  valence: 7
  core: 46
  charge: 0.0
  file: /home/ubuntu/gpaw_dataset/gpaw-setups-0.9.20000/I.PBE.gz
  compensation charges: gauss, rc=0.37, lmax=2
  cutoffs: 2.06(filt), 2.90(core),
  valence states:
                energy  radius
    5s(2.00)   -17.382   1.164
    5p(5.00)    -7.088   1.164
    *s           9.829   1.164
    *p          20.123   1.164
    *d           0.000   1.164

  Using partial waves for I as LCAO basis

N-setup:
  name: Nitrogen
  id: f7500608b86eaa90eef8b1d9a670dc53
  Z: 7.0
  valence: 5
  core: 2
  charge: 0.0
  file: /home/ubuntu/gpaw_dataset/gpaw-setups-0.9.20000/N.PBE.gz
  compensation charges: gauss, rc=0.18, lmax=2
  cutoffs: 1.11(filt), 0.96(core),
  valence states:
                energy  radius
    2s(2.00)   -18.583   0.603
    2p(3.00)    -7.089   0.529
    *s           8.629   0.603
    *p          20.123   0.529
    *d           0.000   0.577

  Using partial waves for N as LCAO basis

Pb-setup:
  name: Lead
  id: 66e73b13d76dc837202bcdb13fee58e6
  Z: 82.0
  valence: 14
  core: 68
  charge: 0.0
  file: /home/ubuntu/gpaw_dataset/gpaw-setups-0.9.20000/Pb.PBE.gz
  compensation charges: gauss, rc=0.38, lmax=2
  cutoffs: 2.36(filt), 2.43(core),
  valence states:
                energy  radius
    6s(2.00)   -11.969   1.259
    6p(2.00)    -3.506   1.275
    5d(10.00)   -21.211   1.217
    *s          15.243   1.259
    *p          23.705   1.275
    *d           6.001   1.217

  Using partial waves for Pb as LCAO basis

Reference energy: -9631096.087487

Spin-paired calculation

Convergence criteria:
  Maximum total energy change: 0.0005 eV / electron
  Maximum integral of absolute density change: 0.0001 electrons
  Maximum integral of absolute eigenstate change: 4e-08 eV^2
  Maximum number of iterations: 333

Symmetries present (total): 2

  ( 1  0  0)  ( 1  0  0)
  ( 0  1  0)  ( 0  1  0)
  ( 0  0  1)  ( 0  0 -1)

64 k-points: 4 x 4 x 4 Monkhorst-Pack grid + [1/8,1/8,1/8]
30 k-points in the irreducible part of the Brillouin zone
       k-points in crystal coordinates                weights
   0:     0.00000000    0.00000000    0.00000000          1/64
   1:     0.00000000    0.00000000    0.25000000          2/64
   2:     0.00000000    0.00000000    0.50000000          1/64
   3:     0.00000000    0.25000000    0.00000000          2/64
   4:     0.00000000    0.25000000    0.25000000          4/64
   5:     0.00000000    0.25000000    0.50000000          2/64
   6:     0.00000000    0.50000000    0.00000000          1/64
   7:     0.00000000    0.50000000    0.25000000          2/64
   8:     0.00000000    0.50000000    0.50000000          1/64
   9:     0.25000000   -0.25000000    0.00000000          2/64
          ...
  29:     0.50000000    0.50000000    0.50000000          1/64

Wave functions: Plane wave expansion
  Cutoff energy: 900.000 eV
  Number of coefficients (min, max): 128203, 128448
  Pulay-stress correction: 0.000000 eV/Ang^3 (de/decut=0.000000)
  Using FFTW library
  ScaLapack parameters: grid=1x1, blocksize=None
  Wavefunction extrapolation:
    Improved wavefunction reuse through dual PAW basis 

  Fermi-Dirac: width=0.0500 eV

Eigensolver
   Davidson(niter=2, smin=None, normalize=True) 

Densities:
  Coarse grid: 90*90*90 grid
  Fine grid: 180*180*180 grid
  Total Charge: 0.000000 

Density mixing:
  Method: separate
  Backend: pulay
  Linear mixing parameter: 0.05
  Mixing with 5 old densities
  Damping of long wave oscillations: 50 

Hamiltonian:
  XC and Coulomb potentials evaluated on a 180*180*180 grid
  Using the PBE Exchange-Correlation functional
 

XC parameters: PBE with 2 nearest neighbor stencil

Memory estimate:
  Process memory now: 390.06 MiB
  Calculator: 2763.58 MiB
    Density: 508.97 MiB
      Arrays: 144.61 MiB
      Localized functions: 308.74 MiB
      Mixer: 55.62 MiB
    Hamiltonian: 104.24 MiB
      Arrays: 94.55 MiB
      XC: 0.00 MiB
      Poisson: 0.00 MiB
      vbar: 9.69 MiB
    Wavefunctions: 2150.37 MiB
      Arrays psit_nG: 1481.73 MiB
      Eigensolver: 513.41 MiB
      Projections: 9.99 MiB
      Projectors: 111.55 MiB
      PW-descriptor: 33.69 MiB

Total number of cores used: 8
Parallelization over k-points: 8

Number of atoms: 82
Number of atomic orbitals: 280
Number of bands in calculation: 252
Number of valence electrons: 412
Bands to converge: CBM+2.0

... initialized

Initializing position-dependent things.

Density initialized from atomic densities
Creating initial wave functions:
  252 bands from LCAO basis set

         .------------------------------.  
        /|                              |  
       / |                              |  
      /  |                              |  
     /   |                              |  
    /    |                     H        |  
   /     |     Cs         HN   C N H    |  
  /      |                H      H      |  
 *   I   |          I                   |  
 |       |  H              H            |  
 |    HIN| C N  H     HN   C N H        |  
 |     H |   H        H      H          |  
 I   Pb  |   I  I   Pb      I           |  
 |       |                     H        |  
 | I     |     Cs I       HN   C N H    |  
 |       |                H      H      |  
 Pb  I   I------Pb--I---I---------------.  
 |      /   H              H           /   
 |    HIN  C N  H     HN   C N H      /    
 |    /H     H        H      H       /     
 I   Pb      I  I   Pb      I       /      
 |  /                              /       
 | /              I               /        
 |/                              /         
 Pb------I------Pb------I-------*          

Positions:
   0 C      9.593107   10.016092    9.593100    ( 0.0000,  0.0000,  0.0000)
   1 C      9.593107    3.620692    9.593100    ( 0.0000,  0.0000,  0.0000)
   2 C      3.197707    3.620692    9.593100    ( 0.0000,  0.0000,  0.0000)
   3 C      9.593107   10.016092    3.197700    ( 0.0000,  0.0000,  0.0000)
   4 C      9.593107    3.620692    3.197700    ( 0.0000,  0.0000,  0.0000)
   5 C      3.197707    3.620692    3.197700    ( 0.0000,  0.0000,  0.0000)
   6 Cs     3.197700    9.593100    9.593100    ( 0.0000,  0.0000,  0.0000)
   7 Cs     3.197700    9.593100    3.197700    ( 0.0000,  0.0000,  0.0000)
   8 H      9.593101   11.136361    9.593100    ( 0.0000,  0.0000,  0.0000)
   9 H     11.587071   10.015427    9.593100    ( 0.0000,  0.0000,  0.0000)
  10 H     10.884812    8.371259    9.593100    ( 0.0000,  0.0000,  0.0000)
  11 H      8.301390    8.371259    9.593100    ( 0.0000,  0.0000,  0.0000)
  12 H      7.599130   10.015427    9.593100    ( 0.0000,  0.0000,  0.0000)
  13 H      9.593101    4.740961    9.593100    ( 0.0000,  0.0000,  0.0000)
  14 H     11.587071    3.620027    9.593100    ( 0.0000,  0.0000,  0.0000)
  15 H     10.884812    1.975859    9.593100    ( 0.0000,  0.0000,  0.0000)
  16 H      8.301390    1.975859    9.593100    ( 0.0000,  0.0000,  0.0000)
  17 H      7.599130    3.620027    9.593100    ( 0.0000,  0.0000,  0.0000)
  18 H      3.197701    4.740961    9.593100    ( 0.0000,  0.0000,  0.0000)
  19 H      5.191671    3.620027    9.593100    ( 0.0000,  0.0000,  0.0000)
  20 H      4.489412    1.975859    9.593100    ( 0.0000,  0.0000,  0.0000)
  21 H      1.905990    1.975859    9.593100    ( 0.0000,  0.0000,  0.0000)
  22 H      1.203730    3.620027    9.593100    ( 0.0000,  0.0000,  0.0000)
  23 H      9.593101   11.136361    3.197700    ( 0.0000,  0.0000,  0.0000)
  24 H     11.587071   10.015427    3.197700    ( 0.0000,  0.0000,  0.0000)
  25 H     10.884812    8.371259    3.197700    ( 0.0000,  0.0000,  0.0000)
  26 H      8.301390    8.371259    3.197700    ( 0.0000,  0.0000,  0.0000)
  27 H      7.599130   10.015427    3.197700    ( 0.0000,  0.0000,  0.0000)
  28 H      9.593101    4.740961    3.197700    ( 0.0000,  0.0000,  0.0000)
  29 H     11.587071    3.620027    3.197700    ( 0.0000,  0.0000,  0.0000)
  30 H     10.884812    1.975859    3.197700    ( 0.0000,  0.0000,  0.0000)
  31 H      8.301390    1.975859    3.197700    ( 0.0000,  0.0000,  0.0000)
  32 H      7.599130    3.620027    3.197700    ( 0.0000,  0.0000,  0.0000)
  33 H      3.197701    4.740961    3.197700    ( 0.0000,  0.0000,  0.0000)
  34 H      5.191671    3.620027    3.197700    ( 0.0000,  0.0000,  0.0000)
  35 H      4.489412    1.975859    3.197700    ( 0.0000,  0.0000,  0.0000)
  36 H      1.905990    1.975859    3.197700    ( 0.0000,  0.0000,  0.0000)
  37 H      1.203730    3.620027    3.197700    ( 0.0000,  0.0000,  0.0000)
  38 I      9.593100    0.000000    0.000000    ( 0.0000,  0.0000,  0.0000)
  39 I      3.197700    0.000000    0.000000    ( 0.0000,  0.0000,  0.0000)
  40 I      9.593100    6.395400    0.000000    ( 0.0000,  0.0000,  0.0000)
  41 I      3.197700    6.395400    0.000000    ( 0.0000,  0.0000,  0.0000)
  42 I      9.593100    0.000000    6.395400    ( 0.0000,  0.0000,  0.0000)
  43 I      3.197700    0.000000    6.395400    ( 0.0000,  0.0000,  0.0000)
  44 I      9.593100    6.395400    6.395400    ( 0.0000,  0.0000,  0.0000)
  45 I      3.197700    6.395400    6.395400    ( 0.0000,  0.0000,  0.0000)
  46 I      0.000000    9.593100    0.000000    ( 0.0000,  0.0000,  0.0000)
  47 I      6.395400    9.593100    0.000000    ( 0.0000,  0.0000,  0.0000)
  48 I      0.000000    3.197700    0.000000    ( 0.0000,  0.0000,  0.0000)
  49 I      6.395400    3.197700    0.000000    ( 0.0000,  0.0000,  0.0000)
  50 I      0.000000    9.593100    6.395400    ( 0.0000,  0.0000,  0.0000)
  51 I      6.395400    9.593100    6.395400    ( 0.0000,  0.0000,  0.0000)
  52 I      0.000000    3.197700    6.395400    ( 0.0000,  0.0000,  0.0000)
  53 I      6.395400    3.197700    6.395400    ( 0.0000,  0.0000,  0.0000)
  54 I      0.000000    0.000000    9.593100    ( 0.0000,  0.0000,  0.0000)
  55 I      6.395400    0.000000    9.593100    ( 0.0000,  0.0000,  0.0000)
  56 I      0.000000    6.395400    9.593100    ( 0.0000,  0.0000,  0.0000)
  57 I      6.395400    6.395400    9.593100    ( 0.0000,  0.0000,  0.0000)
  58 I      0.000000    0.000000    3.197700    ( 0.0000,  0.0000,  0.0000)
  59 I      6.395400    0.000000    3.197700    ( 0.0000,  0.0000,  0.0000)
  60 I      0.000000    6.395400    3.197700    ( 0.0000,  0.0000,  0.0000)
  61 I      6.395400    6.395400    3.197700    ( 0.0000,  0.0000,  0.0000)
  62 N     10.755420    9.409488    9.593100    ( 0.0000,  0.0000,  0.0000)
  63 N      8.430769    9.409488    9.593100    ( 0.0000,  0.0000,  0.0000)
  64 N     10.755420    3.014088    9.593100    ( 0.0000,  0.0000,  0.0000)
  65 N      8.430769    3.014088    9.593100    ( 0.0000,  0.0000,  0.0000)
  66 N      4.360020    3.014088    9.593100    ( 0.0000,  0.0000,  0.0000)
  67 N      2.035369    3.014088    9.593100    ( 0.0000,  0.0000,  0.0000)
  68 N     10.755420    9.409488    3.197700    ( 0.0000,  0.0000,  0.0000)
  69 N      8.430769    9.409488    3.197700    ( 0.0000,  0.0000,  0.0000)
  70 N     10.755420    3.014088    3.197700    ( 0.0000,  0.0000,  0.0000)
  71 N      8.430769    3.014088    3.197700    ( 0.0000,  0.0000,  0.0000)
  72 N      4.360020    3.014088    3.197700    ( 0.0000,  0.0000,  0.0000)
  73 N      2.035369    3.014088    3.197700    ( 0.0000,  0.0000,  0.0000)
  74 Pb     0.000000    0.000000    0.000000    ( 0.0000,  0.0000,  0.0000)
  75 Pb     6.395400    0.000000    0.000000    ( 0.0000,  0.0000,  0.0000)
  76 Pb     0.000000    6.395400    0.000000    ( 0.0000,  0.0000,  0.0000)
  77 Pb     6.395400    6.395400    0.000000    ( 0.0000,  0.0000,  0.0000)
  78 Pb     0.000000    0.000000    6.395400    ( 0.0000,  0.0000,  0.0000)
  79 Pb     6.395400    0.000000    6.395400    ( 0.0000,  0.0000,  0.0000)
  80 Pb     0.000000    6.395400    6.395400    ( 0.0000,  0.0000,  0.0000)
  81 Pb     6.395400    6.395400    6.395400    ( 0.0000,  0.0000,  0.0000)

Unit cell:
           periodic     x           y           z      points  spacing
  1. axis:    yes   12.790800    0.000000    0.000000    90     0.1421
  2. axis:    yes    0.000000   12.790800    0.000000    90     0.1421
  3. axis:    yes    0.000000    0.000000   12.790800    90     0.1421

  Lengths:  12.790800  12.790800  12.790800
  Angles:   90.000000  90.000000  90.000000

Effective grid spacing dv^(1/3) = 0.1421

                     log10-error:    total        iterations:
           time      wfs    density  energy       poisson
iter:   1  07:45:55                -378.602670           
iter:   2  08:04:01  -0.88  -1.02  -376.025307           
iter:   3  08:22:08  -0.87  -1.06  -363.310898           
iter:   4  08:40:14  -1.60  -1.35  -363.144390           
iter:   5  08:58:21  -1.50  -1.39  -364.521241           
iter:   6  09:16:29  -1.44  -1.64  -362.972278           
iter:   7  09:34:32  -2.11  -1.90  -362.692828           
iter:   8  09:52:37  -2.78  -2.03  -362.611176           
iter:   9  10:10:43  -3.57  -2.51  -362.597978           
iter:  10  10:28:48  -3.63  -2.61  -362.593768           
iter:  11  10:46:51  -4.13  -2.88  -362.595363           
iter:  12  11:04:56  -4.43  -2.94  -362.592284           
iter:  13  11:23:00  -4.94  -3.21  -362.592537           
iter:  14  11:41:03  -5.47  -3.40  -362.592618           
iter:  15  11:59:07  -5.61  -3.48  -362.592574           
iter:  16  12:17:11  -6.19  -3.76  -362.592592           
iter:  17  12:35:15  -6.69  -4.03  -362.592592           
iter:  18  12:53:19  -6.67  -4.09  -362.592591           
iter:  19  13:11:21  -7.26  -4.24  -362.592586           
iter:  20  13:29:27  -7.74  -4.37  -362.592585           

Converged after 20 iterations.

Dipole moment: (0.969021, -0.174627, -0.000000) |e|*Ang

Energy contributions relative to reference atoms: (reference = -9631096.087487)

Kinetic:       +457.293114
Potential:     -499.553631
External:        +0.000000
XC:            -321.194152
Entropy (-ST):   -0.000000
Local:           +0.862084
--------------------------
Free energy:   -362.592585
Extrapolated:  -362.592585

Showing only first 2 kpts
 Kpt  Band  Eigenvalues  Occupancy
  0   204      1.45231    0.03125
  0   205      1.77469    0.03125
  0   206      3.12002    0.00000
  0   207      3.23071    0.00000

  1   204      1.46282    0.06250
  1   205      1.61627    0.06250
  1   206      3.29783    0.00000
  1   207      3.30077    0.00000


Fermi level: 2.42395

Gap: 1.345 eV
Transition (v -> c):
  (s=0, k=0, n=205, [0.00, 0.00, 0.00]) -> (s=0, k=0, n=206, [0.00, 0.00, 0.00])
Timing:                              incl.     excl.
-----------------------------------------------------------
Hamiltonian:                        28.565     0.040   0.0% |
 Atomic:                            11.939    11.439   0.1% |
  XC Correction:                     0.501     0.501   0.0% |
 Calculate atomic Hamiltonians:     11.302    11.302   0.1% |
 Communicate:                        0.000     0.000   0.0% |
 Initialize Hamiltonian:             0.000     0.000   0.0% |
 Poisson:                            0.045     0.045   0.0% |
 XC 3D grid:                         5.237     5.237   0.0% |
LCAO initialization:               204.891     0.632   0.0% |
 LCAO eigensolver:                   4.663     0.001   0.0% |
  Calculate projections:             0.253     0.253   0.0% |
  DenseAtomicCorrection:             0.199     0.199   0.0% |
  Distribute overlap matrix:         0.001     0.001   0.0% |
  Orbital Layouts:                   0.234     0.234   0.0% |
  Potential matrix:                  3.919     3.919   0.0% |
  Sum over cells:                    0.056     0.056   0.0% |
 LCAO to grid:                     196.141   196.141   0.9% |
 Set positions (LCAO WFS):           3.454     0.675   0.0% |
  Basic WFS set positions:           0.006     0.006   0.0% |
  Basis functions set positions:     0.001     0.001   0.0% |
  P tci:                             1.883     1.883   0.0% |
  ST tci:                            0.729     0.729   0.0% |
  mktci:                             0.160     0.160   0.0% |
PWDescriptor:                        0.286     0.286   0.0% |
SCF-cycle:                       21840.912  5340.063  24.1% |---------|
 Davidson:                       15134.904  6212.885  28.1% |----------|
  Apply H:                         629.184   617.343   2.8% ||
   HMM T:                           11.841    11.841   0.1% |
  Subspace diag:                  2013.644     0.017   0.0% |
   calc_h_matrix:                 1135.223   471.758   2.1% ||
    Apply H:                       663.464   650.344   2.9% ||
     HMM T:                         13.120    13.120   0.1% |
   diagonalize:                      2.910     2.910   0.0% |
   rotate_psi:                     875.496   875.496   4.0% |-|
  calc. matrices:                 4454.251  3216.164  14.5% |-----|
   Apply H:                       1238.087  1214.417   5.5% |-|
    HMM T:                          23.670    23.670   0.1% |
  diagonalize:                      50.587    50.587   0.2% |
  rotate_psi:                     1774.353  1774.353   8.0% |--|
 Density:                          818.174     0.001   0.0% |
  Atomic density matrices:           0.741     0.741   0.0% |
  Mix:                             322.701   322.701   1.5% ||
  Multipole moments:                 0.038     0.038   0.0% |
  Pseudo density:                  494.693   493.608   2.2% ||
   Symmetrize density:               1.085     1.085   0.0% |
 Hamiltonian:                      434.898     0.713   0.0% |
  Atomic:                           23.569    13.979   0.1% |
   XC Correction:                    9.590     9.590   0.0% |
  Calculate atomic Hamiltonians:   314.548   314.548   1.4% ||
  Communicate:                       0.002     0.002   0.0% |
  Poisson:                           0.824     0.824   0.0% |
  XC 3D grid:                       95.242    95.242   0.4% |
 Orthonormalize:                   112.873     0.001   0.0% |
  calc_s_matrix:                    13.375    13.375   0.1% |
  inverse-cholesky:                  0.063     0.063   0.0% |
  projections:                      76.922    76.922   0.3% |
  rotate_psi_s:                     22.512    22.512   0.1% |
Set symmetry:                        0.004     0.004   0.0% |
Other:                              72.379    72.379   0.3% |
-----------------------------------------------------------
Total:                                     22147.036 100.0%

Date: Wed Oct 28 13:29:27 2020
