
  ___ ___ ___ _ _ _  
 |   |   |_  | | | | 
 | | | | | . | | | | 
 |__ |  _|___|_____|  20.10.0
 |___|_|             

User:   qdeng@qdeng
Date:   Sun Oct 25 19:48:10 2020
Arch:   x86_64
Pid:    370
Python: 3.8.3
gpaw:   /home/qdeng/anaconda3/lib/python3.8/site-packages/gpaw
_gpaw:  /home/qdeng/anaconda3/lib/python3.8/site-packages/
        _gpaw.cpython-38-x86_64-linux-gnu.so
ase:    /home/qdeng/anaconda3/lib/python3.8/site-packages/ase (version 3.20.1)
numpy:  /home/qdeng/anaconda3/lib/python3.8/site-packages/numpy (version 1.18.5)
scipy:  /home/qdeng/anaconda3/lib/python3.8/site-packages/scipy (version 1.5.0)
libxc:  3.0.0
units:  Angstrom and eV
cores: 4
OMP_NUM_THREADS: 1

Input parameters:
  convergence: {bands: CBM+2.0,
                density: 0.0001,
                eigenstates: 4e-08,
                energy: 0.0005,
                forces: inf}
  kpts: {gamma: True,
         size: (6, 6, 6)}
  mode: {ecut: 340.0,
         gammacentered: False,
         name: pw}
  occupations: {fixmagmom: False,
                name: fermi-dirac,
                width: 0.05}
  xc: PBE

System changes: positions, numbers, cell, pbc, initial_charges, initial_magmoms 

Initialize ...

C-setup:
  name: Carbon
  id: 4aa54d4b901d75f77cc0ea3eec22967b
  Z: 6.0
  valence: 4
  core: 2
  charge: 0.0
  file: /home/qdeng/.gpaw/gpaw-setups-0.9.20000/C.PBE.gz
  compensation charges: gauss, rc=0.20, lmax=2
  cutoffs: 1.14(filt), 1.14(core),
  valence states:
                energy  radius
    2s(2.00)   -13.751   0.635
    2p(2.00)    -5.284   0.635
    *s          13.461   0.635
    *p          21.927   0.635
    *d           0.000   0.635

  Using partial waves for C as LCAO basis

Cs-setup:
  name: Caesium
  id: fa822afd343f47335d508b9ee4f394c3
  Z: 55.0
  valence: 9
  core: 46
  charge: 0.0
  file: /home/qdeng/.gpaw/gpaw-setups-0.9.20000/Cs.PBE.gz
  compensation charges: gauss, rc=0.33, lmax=2
  cutoffs: 2.06(filt), 2.51(core),
  valence states:
                energy  radius
    5s(2.00)   -26.706   1.164
    6s(1.00)    -2.085   1.164
    5p(6.00)   -13.523   1.058
    *p          13.688   1.058
    *d           0.000   1.058

  Using partial waves for Cs as LCAO basis

H-setup:
  name: Hydrogen
  id: d65de229564ff8ea4db303e23b6d1ecf
  Z: 1.0
  valence: 1
  core: 0
  charge: 0.0
  file: /home/qdeng/.gpaw/gpaw-setups-0.9.20000/H.PBE.gz
  compensation charges: gauss, rc=0.15, lmax=2
  cutoffs: 0.85(filt), 0.53(core),
  valence states:
                energy  radius
    1s(1.00)    -6.494   0.476
    *s          20.717   0.476
    *p           0.000   0.476

  Using partial waves for H as LCAO basis

I-setup:
  name: Iodine
  id: 91405a398e4dfe788ff04f57531604ec
  Z: 53.0
  valence: 7
  core: 46
  charge: 0.0
  file: /home/qdeng/.gpaw/gpaw-setups-0.9.20000/I.PBE.gz
  compensation charges: gauss, rc=0.37, lmax=2
  cutoffs: 2.06(filt), 2.90(core),
  valence states:
                energy  radius
    5s(2.00)   -17.382   1.164
    5p(5.00)    -7.088   1.164
    *s           9.829   1.164
    *p          20.123   1.164
    *d           0.000   1.164

  Using partial waves for I as LCAO basis

N-setup:
  name: Nitrogen
  id: f7500608b86eaa90eef8b1d9a670dc53
  Z: 7.0
  valence: 5
  core: 2
  charge: 0.0
  file: /home/qdeng/.gpaw/gpaw-setups-0.9.20000/N.PBE.gz
  compensation charges: gauss, rc=0.18, lmax=2
  cutoffs: 1.11(filt), 0.96(core),
  valence states:
                energy  radius
    2s(2.00)   -18.583   0.603
    2p(3.00)    -7.089   0.529
    *s           8.629   0.603
    *p          20.123   0.529
    *d           0.000   0.577

  Using partial waves for N as LCAO basis

Pb-setup:
  name: Lead
  id: 66e73b13d76dc837202bcdb13fee58e6
  Z: 82.0
  valence: 14
  core: 68
  charge: 0.0
  file: /home/qdeng/.gpaw/gpaw-setups-0.9.20000/Pb.PBE.gz
  compensation charges: gauss, rc=0.38, lmax=2
  cutoffs: 2.36(filt), 2.43(core),
  valence states:
                energy  radius
    6s(2.00)   -11.969   1.259
    6p(2.00)    -3.506   1.275
    5d(10.00)   -21.211   1.217
    *s          15.243   1.259
    *p          23.705   1.275
    *d           6.001   1.217

  Using partial waves for Pb as LCAO basis

Reference energy: -9631096.087487

Spin-paired calculation

Convergence criteria:
  Maximum total energy change: 0.0005 eV / electron
  Maximum integral of absolute density change: 0.0001 electrons
  Maximum integral of absolute eigenstate change: 4e-08 eV^2
  Maximum number of iterations: 333

Symmetries present (total): 2

  ( 1  0  0)  ( 1  0  0)
  ( 0  1  0)  ( 0  1  0)
  ( 0  0  1)  ( 0  0 -1)

216 k-points: 6 x 6 x 6 Monkhorst-Pack grid + [1/12,1/12,1/12]
80 k-points in the irreducible part of the Brillouin zone
       k-points in crystal coordinates                weights
   0:     0.00000000    0.00000000    0.00000000          1/216
   1:     0.00000000    0.00000000    0.16666667          2/216
   2:     0.00000000    0.00000000    0.33333333          2/216
   3:     0.00000000    0.00000000    0.50000000          1/216
   4:     0.00000000    0.16666667    0.00000000          2/216
   5:     0.00000000    0.16666667    0.16666667          4/216
   6:     0.00000000    0.16666667    0.33333333          4/216
   7:     0.00000000    0.16666667    0.50000000          2/216
   8:     0.00000000    0.33333333    0.00000000          2/216
   9:     0.00000000    0.33333333    0.16666667          4/216
          ...
  79:     0.50000000    0.50000000    0.50000000          1/216

Wave functions: Plane wave expansion
  Cutoff energy: 340.000 eV
  Number of coefficients (min, max): 29711, 29848
  Pulay-stress correction: 0.000000 eV/Ang^3 (de/decut=0.000000)
  Using FFTW library
  ScaLapack parameters: grid=1x1, blocksize=None
  Wavefunction extrapolation:
    Improved wavefunction reuse through dual PAW basis 

  Fermi-Dirac: width=0.0500 eV

Eigensolver
   Davidson(niter=2, smin=None, normalize=True) 

Densities:
  Coarse grid: 56*56*56 grid
  Fine grid: 112*112*112 grid
  Total Charge: 0.000000 

Density mixing:
  Method: separate
  Backend: pulay
  Linear mixing parameter: 0.05
  Mixing with 5 old densities
  Damping of long wave oscillations: 50 

Hamiltonian:
  XC and Coulomb potentials evaluated on a 112*112*112 grid
  Using the PBE Exchange-Correlation functional
 

XC parameters: PBE with 2 nearest neighbor stencil

Memory estimate:
  Process memory now: 186.70 MiB
  Calculator: 2822.27 MiB
    Density: 119.93 MiB
      Arrays: 34.84 MiB
      Localized functions: 71.70 MiB
      Mixer: 13.40 MiB
    Hamiltonian: 25.03 MiB
      Arrays: 22.78 MiB
      XC: 0.00 MiB
      Poisson: 0.00 MiB
      vbar: 2.25 MiB
    Wavefunctions: 2677.31 MiB
      Arrays psit_nG: 2295.44 MiB
      Eigensolver: 126.75 MiB
      Projections: 66.60 MiB
      Projectors: 172.71 MiB
      PW-descriptor: 15.81 MiB

Total number of cores used: 4
Parallelization over k-points: 4

Number of atoms: 82
Number of atomic orbitals: 280
Number of bands in calculation: 252
Number of valence electrons: 412
Bands to converge: CBM+2.0

