
  ___ ___ ___ _ _ _  
 |   |   |_  | | | | 
 | | | | | . | | | | 
 |__ |  _|___|_____|  20.10.0
 |___|_|             

User:   ubuntu@ip-172-31-71-9
Date:   Sun Nov  1 19:28:14 2020
Arch:   x86_64
Pid:    8763
Python: 3.8.3
gpaw:   /home/ubuntu/anaconda3/lib/python3.8/site-packages/gpaw
_gpaw:  /home/ubuntu/anaconda3/lib/python3.8/site-packages/
        _gpaw.cpython-38-x86_64-linux-gnu.so
ase:    /home/ubuntu/anaconda3/lib/python3.8/site-packages/ase (version 3.20.1)
numpy:  /home/ubuntu/anaconda3/lib/python3.8/site-packages/numpy (version 1.18.5)
scipy:  /home/ubuntu/anaconda3/lib/python3.8/site-packages/scipy (version 1.5.0)
libxc:  3.0.0
units:  Angstrom and eV
cores: 8
OMP_NUM_THREADS: 1

Input parameters:
  convergence: {bands: CBM+2.0,
                density: 0.0001,
                eigenstates: 4e-08,
                energy: 0.0005,
                forces: inf}
  kpts: {gamma: True,
         size: (4, 4, 4)}
  mode: {ecut: 700.0,
         gammacentered: False,
         name: pw}
  occupations: {fixmagmom: False,
                name: fermi-dirac,
                width: 0.05}
  xc: PBE

System changes: positions, numbers, cell, pbc, initial_charges, initial_magmoms 

Initialize ...

C-setup:
  name: Carbon
  id: 4aa54d4b901d75f77cc0ea3eec22967b
  Z: 6.0
  valence: 4
  core: 2
  charge: 0.0
  file: /home/ubuntu/gpaw_dataset/gpaw-setups-0.9.20000/C.PBE.gz
  compensation charges: gauss, rc=0.20, lmax=2
  cutoffs: 1.14(filt), 1.14(core),
  valence states:
                energy  radius
    2s(2.00)   -13.751   0.635
    2p(2.00)    -5.284   0.635
    *s          13.461   0.635
    *p          21.927   0.635
    *d           0.000   0.635

  Using partial waves for C as LCAO basis

Cl-setup:
  name: Chlorine
  id: 726897f06f34e53cf8e33b5885a02604
  Z: 17.0
  valence: 7
  core: 10
  charge: 0.0
  file: /home/ubuntu/gpaw_dataset/gpaw-setups-0.9.20000/Cl.PBE.gz
  compensation charges: gauss, rc=0.25, lmax=2
  cutoffs: 1.40(filt), 1.49(core),
  valence states:
                energy  radius
    3s(2.00)   -20.689   0.794
    3p(5.00)    -8.594   0.794
    *s           6.523   0.794
    *p          18.617   0.794
    *d           0.000   0.794

  Using partial waves for Cl as LCAO basis

Cs-setup:
  name: Caesium
  id: fa822afd343f47335d508b9ee4f394c3
  Z: 55.0
  valence: 9
  core: 46
  charge: 0.0
  file: /home/ubuntu/gpaw_dataset/gpaw-setups-0.9.20000/Cs.PBE.gz
  compensation charges: gauss, rc=0.33, lmax=2
  cutoffs: 2.06(filt), 2.51(core),
  valence states:
                energy  radius
    5s(2.00)   -26.706   1.164
    6s(1.00)    -2.085   1.164
    5p(6.00)   -13.523   1.058
    *p          13.688   1.058
    *d           0.000   1.058

  Using partial waves for Cs as LCAO basis

H-setup:
  name: Hydrogen
  id: d65de229564ff8ea4db303e23b6d1ecf
  Z: 1.0
  valence: 1
  core: 0
  charge: 0.0
  file: /home/ubuntu/gpaw_dataset/gpaw-setups-0.9.20000/H.PBE.gz
  compensation charges: gauss, rc=0.15, lmax=2
  cutoffs: 0.85(filt), 0.53(core),
  valence states:
                energy  radius
    1s(1.00)    -6.494   0.476
    *s          20.717   0.476
    *p           0.000   0.476

  Using partial waves for H as LCAO basis

I-setup:
  name: Iodine
  id: 91405a398e4dfe788ff04f57531604ec
  Z: 53.0
  valence: 7
  core: 46
  charge: 0.0
  file: /home/ubuntu/gpaw_dataset/gpaw-setups-0.9.20000/I.PBE.gz
  compensation charges: gauss, rc=0.37, lmax=2
  cutoffs: 2.06(filt), 2.90(core),
  valence states:
                energy  radius
    5s(2.00)   -17.382   1.164
    5p(5.00)    -7.088   1.164
    *s           9.829   1.164
    *p          20.123   1.164
    *d           0.000   1.164

  Using partial waves for I as LCAO basis

N-setup:
  name: Nitrogen
  id: f7500608b86eaa90eef8b1d9a670dc53
  Z: 7.0
  valence: 5
  core: 2
  charge: 0.0
  file: /home/ubuntu/gpaw_dataset/gpaw-setups-0.9.20000/N.PBE.gz
  compensation charges: gauss, rc=0.18, lmax=2
  cutoffs: 1.11(filt), 0.96(core),
  valence states:
                energy  radius
    2s(2.00)   -18.583   0.603
    2p(3.00)    -7.089   0.529
    *s           8.629   0.603
    *p          20.123   0.529
    *d           0.000   0.577

  Using partial waves for N as LCAO basis

Pb-setup:
  name: Lead
  id: 66e73b13d76dc837202bcdb13fee58e6
  Z: 82.0
  valence: 14
  core: 68
  charge: 0.0
  file: /home/ubuntu/gpaw_dataset/gpaw-setups-0.9.20000/Pb.PBE.gz
  compensation charges: gauss, rc=0.38, lmax=2
  cutoffs: 2.36(filt), 2.43(core),
  valence states:
                energy  radius
    6s(2.00)   -11.969   1.259
    6p(2.00)    -3.506   1.275
    5d(10.00)   -21.211   1.217
    *s          15.243   1.259
    *p          23.705   1.275
    *d           6.001   1.217

  Using partial waves for Pb as LCAO basis

Reference energy: -7794476.916501

Spin-paired calculation

Convergence criteria:
  Maximum total energy change: 0.0005 eV / electron
  Maximum integral of absolute density change: 0.0001 electrons
  Maximum integral of absolute eigenstate change: 4e-08 eV^2
  Maximum number of iterations: 333

Symmetries present (total): 1

  ( 1  0  0)
  ( 0  1  0)
  ( 0  0  1)

64 k-points: 4 x 4 x 4 Monkhorst-Pack grid + [1/8,1/8,1/8]
36 k-points in the irreducible part of the Brillouin zone
       k-points in crystal coordinates                weights
   0:     0.00000000    0.00000000    0.00000000          1/64
   1:     0.00000000    0.00000000    0.25000000          2/64
   2:     0.00000000    0.00000000    0.50000000          1/64
   3:     0.00000000    0.25000000   -0.25000000          2/64
   4:     0.00000000    0.25000000    0.00000000          2/64
   5:     0.00000000    0.25000000    0.25000000          2/64
   6:     0.00000000    0.25000000    0.50000000          2/64
   7:     0.00000000    0.50000000    0.00000000          1/64
   8:     0.00000000    0.50000000    0.25000000          2/64
   9:     0.00000000    0.50000000    0.50000000          1/64
          ...
  35:     0.50000000    0.50000000    0.50000000          1/64

Wave functions: Plane wave expansion
  Cutoff energy: 700.000 eV
  Number of coefficients (min, max): 77334, 77605
  Pulay-stress correction: 0.000000 eV/Ang^3 (de/decut=0.000000)
  Using FFTW library
  ScaLapack parameters: grid=1x1, blocksize=None
  Wavefunction extrapolation:
    Improved wavefunction reuse through dual PAW basis 

  Fermi-Dirac: width=0.0500 eV

Eigensolver
   Davidson(niter=2, smin=None, normalize=True) 

Densities:
  Coarse grid: 75*75*75 grid
  Fine grid: 150*150*150 grid
  Total Charge: 0.000000 

Density mixing:
  Method: separate
  Backend: pulay
  Linear mixing parameter: 0.05
  Mixing with 5 old densities
  Damping of long wave oscillations: 50 

Hamiltonian:
  XC and Coulomb potentials evaluated on a 150*150*150 grid
  Using the PBE Exchange-Correlation functional
 

XC parameters: PBE with 2 nearest neighbor stencil

Memory estimate:
  Process memory now: 280.58 MiB
  Calculator: 3417.31 MiB
    Density: 161.80 MiB
      Arrays: 41.89 MiB
      Localized functions: 103.61 MiB
      Mixer: 16.31 MiB
    Hamiltonian: 30.73 MiB
      Arrays: 27.38 MiB
      XC: 0.00 MiB
      Poisson: 0.00 MiB
      vbar: 3.35 MiB
    Wavefunctions: 3224.78 MiB
      Arrays psit_nG: 2749.62 MiB
      Eigensolver: 321.60 MiB
      Projections: 16.25 MiB
      Projectors: 114.57 MiB
      PW-descriptor: 22.75 MiB

Total number of cores used: 8
Parallelization over k-points: 4
Domain decomposition: 2 x 1 x 1

Number of atoms: 89
Number of atomic orbitals: 292
Number of bands in calculation: 258
Number of valence electrons: 422
Bands to converge: CBM+2.0

... initialized

Initializing position-dependent things.

Density initialized from atomic densities
Creating initial wave functions:
  258 bands from LCAO basis set

         .-----------------------------.  
        /|                             |  
       / |                             |  
      /  |                             |  
     /   |                             |  
    /    |               H    C   H    |  
   /     |     Cs          N    N      |  
  /      |                H     H      |  
 *   I   |          Cl                 |  
 |    HI | C   H     HCl  C   H        |  
 |      N|   N         N    N          |  
 |   PbH |   H      PbH    IH          |  
 I       |     HI             H        |  
 | I     |H N  C NIH     H N  C N H    |  
 |       | H     H        H     H      |  
 Pb  Cl  I------Pb--Cl-Cl--------------.  
 |      /  H              H           /   
 |    HIN  C N H     HCN  C N H      /    
 |    /H     H        H     H       /     
 I   Pb      Cl I   Pb     Cl      /      
 |  /                             /       
 | I              I              /        
 |/                             /         
 Pb------Cl-----Pb-----I-------*          

Positions:
   0 C      9.192898    9.598237    9.192891    ( 0.0000,  0.0000,  0.0000)
   1 C      9.192898    3.469642    9.192891    ( 0.0000,  0.0000,  0.0000)
   2 C      3.064304    3.469642    9.192891    ( 0.0000,  0.0000,  0.0000)
   3 C      9.192898    9.598237    3.064297    ( 0.0000,  0.0000,  0.0000)
   4 C      3.064304    9.598237    3.064297    ( 0.0000,  0.0000,  0.0000)
   5 C      9.192898    3.469642    3.064297    ( 0.0000,  0.0000,  0.0000)
   6 C      3.064304    3.469642    3.064297    ( 0.0000,  0.0000,  0.0000)
   7 Cl     6.128594    9.192891    0.000000    ( 0.0000,  0.0000,  0.0000)
   8 Cl     6.128594    9.192891    6.128594    ( 0.0000,  0.0000,  0.0000)
   9 Cl     3.064297    0.000000    0.000000    ( 0.0000,  0.0000,  0.0000)
  10 Cl     9.192891    6.128594    0.000000    ( 0.0000,  0.0000,  0.0000)
  11 Cl     3.064297    6.128594    0.000000    ( 0.0000,  0.0000,  0.0000)
  12 Cl     9.192891    0.000000    6.128594    ( 0.0000,  0.0000,  0.0000)
  13 Cl     6.128594    6.128594    9.192891    ( 0.0000,  0.0000,  0.0000)
  14 Cl     0.000000    6.128594    3.064297    ( 0.0000,  0.0000,  0.0000)
  15 Cl     6.128594    6.128594    3.064297    ( 0.0000,  0.0000,  0.0000)
  16 Cs     3.064297    9.192891    9.192891    ( 0.0000,  0.0000,  0.0000)
  17 H      9.192892   10.671770    9.192891    ( 0.0000,  0.0000,  0.0000)
  18 H     11.103678    9.597599    9.192891    ( 0.0000,  0.0000,  0.0000)
  19 H     10.430715    8.022023    9.192891    ( 0.0000,  0.0000,  0.0000)
  20 H      7.955069    8.022023    9.192891    ( 0.0000,  0.0000,  0.0000)
  21 H      7.282107    9.597599    9.192891    ( 0.0000,  0.0000,  0.0000)
  22 H      9.192892    4.543176    9.192891    ( 0.0000,  0.0000,  0.0000)
  23 H     11.103678    3.469005    9.192891    ( 0.0000,  0.0000,  0.0000)
  24 H     10.430715    1.893429    9.192891    ( 0.0000,  0.0000,  0.0000)
  25 H      7.955069    1.893429    9.192891    ( 0.0000,  0.0000,  0.0000)
  26 H      7.282107    3.469005    9.192891    ( 0.0000,  0.0000,  0.0000)
  27 H      3.064298    4.543176    9.192891    ( 0.0000,  0.0000,  0.0000)
  28 H      4.975083    3.469005    9.192891    ( 0.0000,  0.0000,  0.0000)
  29 H      4.302121    1.893429    9.192891    ( 0.0000,  0.0000,  0.0000)
  30 H      1.826475    1.893429    9.192891    ( 0.0000,  0.0000,  0.0000)
  31 H      1.153513    3.469005    9.192891    ( 0.0000,  0.0000,  0.0000)
  32 H      9.192892   10.671770    3.064297    ( 0.0000,  0.0000,  0.0000)
  33 H     11.103678    9.597599    3.064297    ( 0.0000,  0.0000,  0.0000)
  34 H     10.430715    8.022023    3.064297    ( 0.0000,  0.0000,  0.0000)
  35 H      7.955069    8.022023    3.064297    ( 0.0000,  0.0000,  0.0000)
  36 H      7.282107    9.597599    3.064297    ( 0.0000,  0.0000,  0.0000)
  37 H      3.064298   10.671770    3.064297    ( 0.0000,  0.0000,  0.0000)
  38 H      4.975083    9.597599    3.064297    ( 0.0000,  0.0000,  0.0000)
  39 H      4.302121    8.022023    3.064297    ( 0.0000,  0.0000,  0.0000)
  40 H      1.826475    8.022023    3.064297    ( 0.0000,  0.0000,  0.0000)
  41 H      1.153513    9.597599    3.064297    ( 0.0000,  0.0000,  0.0000)
  42 H      9.192892    4.543176    3.064297    ( 0.0000,  0.0000,  0.0000)
  43 H     11.103678    3.469005    3.064297    ( 0.0000,  0.0000,  0.0000)
  44 H     10.430715    1.893429    3.064297    ( 0.0000,  0.0000,  0.0000)
  45 H      7.955069    1.893429    3.064297    ( 0.0000,  0.0000,  0.0000)
  46 H      7.282107    3.469005    3.064297    ( 0.0000,  0.0000,  0.0000)
  47 H      3.064298    4.543176    3.064297    ( 0.0000,  0.0000,  0.0000)
  48 H      4.975083    3.469005    3.064297    ( 0.0000,  0.0000,  0.0000)
  49 H      4.302121    1.893429    3.064297    ( 0.0000,  0.0000,  0.0000)
  50 H      1.826475    1.893429    3.064297    ( 0.0000,  0.0000,  0.0000)
  51 H      1.153513    3.469005    3.064297    ( 0.0000,  0.0000,  0.0000)
  52 I      0.000000    9.192891    0.000000    ( 0.0000,  0.0000,  0.0000)
  53 I      0.000000    3.064297    0.000000    ( 0.0000,  0.0000,  0.0000)
  54 I      6.128594    3.064297    0.000000    ( 0.0000,  0.0000,  0.0000)
  55 I      0.000000    9.192891    6.128594    ( 0.0000,  0.0000,  0.0000)
  56 I      0.000000    3.064297    6.128594    ( 0.0000,  0.0000,  0.0000)
  57 I      6.128594    3.064297    6.128594    ( 0.0000,  0.0000,  0.0000)
  58 I      9.192891    0.000000    0.000000    ( 0.0000,  0.0000,  0.0000)
  59 I      3.064297    0.000000    6.128594    ( 0.0000,  0.0000,  0.0000)
  60 I      9.192891    6.128594    6.128594    ( 0.0000,  0.0000,  0.0000)
  61 I      3.064297    6.128594    6.128594    ( 0.0000,  0.0000,  0.0000)
  62 I      0.000000    0.000000    9.192891    ( 0.0000,  0.0000,  0.0000)
  63 I      6.128594    0.000000    9.192891    ( 0.0000,  0.0000,  0.0000)
  64 I      0.000000    6.128594    9.192891    ( 0.0000,  0.0000,  0.0000)
  65 I      0.000000    0.000000    3.064297    ( 0.0000,  0.0000,  0.0000)
  66 I      6.128594    0.000000    3.064297    ( 0.0000,  0.0000,  0.0000)
  67 N     10.306721    9.016939    9.192891    ( 0.0000,  0.0000,  0.0000)
  68 N      8.079051    9.016939    9.192891    ( 0.0000,  0.0000,  0.0000)
  69 N     10.306721    2.888345    9.192891    ( 0.0000,  0.0000,  0.0000)
  70 N      8.079051    2.888345    9.192891    ( 0.0000,  0.0000,  0.0000)
  71 N      4.178127    2.888345    9.192891    ( 0.0000,  0.0000,  0.0000)
  72 N      1.950457    2.888345    9.192891    ( 0.0000,  0.0000,  0.0000)
  73 N     10.306721    9.016939    3.064297    ( 0.0000,  0.0000,  0.0000)
  74 N      8.079051    9.016939    3.064297    ( 0.0000,  0.0000,  0.0000)
  75 N      4.178127    9.016939    3.064297    ( 0.0000,  0.0000,  0.0000)
  76 N      1.950457    9.016939    3.064297    ( 0.0000,  0.0000,  0.0000)
  77 N     10.306721    2.888345    3.064297    ( 0.0000,  0.0000,  0.0000)
  78 N      8.079051    2.888345    3.064297    ( 0.0000,  0.0000,  0.0000)
  79 N      4.178127    2.888345    3.064297    ( 0.0000,  0.0000,  0.0000)
  80 N      1.950457    2.888345    3.064297    ( 0.0000,  0.0000,  0.0000)
  81 Pb     0.000000    0.000000    0.000000    ( 0.0000,  0.0000,  0.0000)
  82 Pb     6.128594    0.000000    0.000000    ( 0.0000,  0.0000,  0.0000)
  83 Pb     0.000000    6.128594    0.000000    ( 0.0000,  0.0000,  0.0000)
  84 Pb     6.128594    6.128594    0.000000    ( 0.0000,  0.0000,  0.0000)
  85 Pb     0.000000    0.000000    6.128594    ( 0.0000,  0.0000,  0.0000)
  86 Pb     6.128594    0.000000    6.128594    ( 0.0000,  0.0000,  0.0000)
  87 Pb     0.000000    6.128594    6.128594    ( 0.0000,  0.0000,  0.0000)
  88 Pb     6.128594    6.128594    6.128594    ( 0.0000,  0.0000,  0.0000)

Unit cell:
           periodic     x           y           z      points  spacing
  1. axis:    yes   12.257188    0.000000    0.000000    75     0.1634
  2. axis:    yes    0.000000   12.257188    0.000000    75     0.1634
  3. axis:    yes    0.000000    0.000000   12.257188    75     0.1634

  Lengths:  12.257188  12.257188  12.257188
  Angles:   90.000000  90.000000  90.000000

Effective grid spacing dv^(1/3) = 0.1634

                     log10-error:    total        iterations:
           time      wfs    density  energy       poisson
iter:   1  19:47:27                -434.675036           
iter:   2  20:00:35  -0.74  -0.96  -430.495883           
iter:   3  20:13:40  -0.68  -0.99  -410.192019           
iter:   4  20:26:44  -1.39  -1.30  -409.906763           
iter:   5  20:39:48  -1.45  -1.33  -411.740836           
iter:   6  20:52:52  -1.27  -1.57  -409.286399           
iter:   7  21:05:55  -2.31  -1.92  -408.900440           
iter:   8  21:18:58  -2.72  -2.06  -408.892805           
iter:   9  21:32:02  -3.19  -2.50  -408.884152           
iter:  10  21:45:06  -3.22  -2.50  -408.872473           
iter:  11  21:58:09  -3.84  -2.85  -408.872203           
iter:  12  22:11:13  -4.68  -2.93  -408.871235           
iter:  13  22:24:16  -4.87  -3.02  -408.871296           
iter:  14  22:37:19  -5.07  -3.13  -408.870449           
iter:  15  22:50:22  -5.22  -3.23  -408.870344           
iter:  16  23:03:26  -5.92  -3.27  -408.870405           
iter:  17  23:16:29  -5.35  -3.30  -408.870418           
iter:  18  23:29:32  -6.26  -3.45  -408.870461           
iter:  19  23:42:35  -5.99  -3.49  -408.870540           
iter:  20  23:55:37  -6.21  -3.66  -408.870538           
iter:  21  00:08:40  -5.87  -3.73  -408.870534           
iter:  22  00:21:43  -6.44  -4.04  -408.870515           
iter:  23  00:34:44  -7.32  -4.28  -408.870513           
iter:  24  00:47:46  -7.58  -4.40  -408.870512           

Converged after 24 iterations.

Dipole moment: (0.494643, -0.379829, 0.301719) |e|*Ang

Energy contributions relative to reference atoms: (reference = -7794476.916501)

Kinetic:       +670.700103
Potential:     -677.200071
External:        +0.000000
XC:            -403.198857
Entropy (-ST):   -0.000000
Local:           +0.828313
--------------------------
Free energy:   -408.870512
Extrapolated:  -408.870512

Showing only first 2 kpts
 Kpt  Band  Eigenvalues  Occupancy
  0   209      1.72892    0.03125
  0   210      2.13375    0.03125
  0   211      3.45960    0.00000
  0   212      3.55419    0.00000

  1   209      1.68923    0.06250
  1   210      1.96338    0.06250
  1   211      3.63024    0.00000
  1   212      3.69857    0.00000


Fermi level: 2.77314

Gap: 1.326 eV
Transition (v -> c):
  (s=0, k=0, n=210, [0.00, 0.00, 0.00]) -> (s=0, k=0, n=211, [0.00, 0.00, 0.00])
Writing to C7Cl9Cs1H35I15N14Pb8.gpw (mode='')


Forces in eV/Ang:
  0 C    -0.11467    2.26200   -0.01745
  1 C     0.03842    2.42981    0.00957
  2 C    -0.03959    2.42890    0.03450
  3 C    -0.08107    2.28850    0.01797
  4 C     0.05704    2.28368   -0.03460
  5 C     0.04067    2.47039   -0.01098
  6 C    -0.04330    2.46472   -0.03605
  7 Cl   -0.09358   -0.03078   -0.04627
  8 Cl   -0.10713    0.01172    0.04703
  9 Cl    0.02103   -0.04032   -0.02483
 10 Cl   -0.05600   -0.00074    0.00981
 11 Cl    0.05774    0.05256   -0.01781
 12 Cl   -0.01734    0.01865   -0.01598
 13 Cl    0.02063   -0.16826    0.05598
 14 Cl    0.00500   -0.12821   -0.02930
 15 Cl   -0.00628   -0.14726   -0.05517
 16 Cs    0.11377   -0.04148    0.08278
 17 H    -0.00366    0.70727   -0.02542
 18 H     1.44315    0.58680   -0.00551
 19 H     0.18906   -0.78885    0.01025
 20 H    -0.27611   -0.81266    0.00927
 21 H    -1.45811    0.56282   -0.00586
 22 H    -0.00461    0.71606    0.01902
 23 H     1.33976    0.63036    0.00381
 24 H     0.22072   -0.83544   -0.01727
 25 H    -0.22201   -0.83064   -0.01694
 26 H    -1.30421    0.62645    0.00202
 27 H     0.00609    0.71900    0.01948
 28 H     1.30597    0.62258    0.00208
 29 H     0.22000   -0.83087    0.01350
 30 H    -0.21859   -0.83496    0.01382
 31 H    -1.34221    0.62511    0.00373
 32 H    -0.00042    0.70521    0.02503
 33 H     1.32979    0.60561    0.00518
 34 H     0.26634   -0.84446   -0.00921
 35 H    -0.25858   -0.82040   -0.00868
 36 H    -1.34226    0.59425    0.00565
 37 H     0.00032    0.70560   -0.02235
 38 H     1.34610    0.59387   -0.00492
 39 H     0.26307   -0.82113   -0.00706
 40 H    -0.27149   -0.84387   -0.00764
 41 H    -1.33180    0.60442   -0.00371
 42 H     0.00339    0.70654   -0.01844
 43 H     1.30607    0.61874   -0.00346
 44 H     0.20907   -0.81193    0.01654
 45 H    -0.20661   -0.81386    0.01656
 46 H    -1.29573    0.61102   -0.00204
 47 H    -0.00338    0.70710   -0.01927
 48 H     1.29988    0.61066   -0.00225
 49 H     0.21215   -0.81652   -0.01350
 50 H    -0.21459   -0.81441   -0.01418
 51 H    -1.31099    0.61893   -0.00361
 52 I     0.13061   -0.05467   -0.10628
 53 I     0.02588    0.07202    0.03069
 54 I    -0.02713    0.13198    0.01019
 55 I     0.09254    0.02203    0.10886
 56 I    -0.01817   -0.00554   -0.03151
 57 I     0.02063    0.02857   -0.01071
 58 I    -0.04518    0.01218    0.01210
 59 I     0.04777   -0.03084    0.03137
 60 I    -0.07088    0.04892   -0.02860
 61 I     0.07206    0.07520   -0.01385
 62 I     0.03316   -0.38252    0.00042
 63 I    -0.03625   -0.41324    0.00146
 64 I     0.14177   -0.18944    0.07298
 65 I     0.00387   -0.37950    0.00074
 66 I    -0.00507   -0.40559   -0.00032
 67 N     2.14686   -1.14546   -0.01663
 68 N    -2.27377   -1.28935   -0.01489
 69 N     2.04507   -1.15362   -0.01619
 70 N    -2.18394   -1.07287   -0.01512
 71 N     2.18825   -1.07264   -0.02184
 72 N    -2.04911   -1.15168   -0.02285
 73 N     2.23572   -1.36085    0.01520
 74 N    -2.27235   -1.33712    0.01465
 75 N     2.28123   -1.33981    0.02746
 76 N    -2.21653   -1.35216    0.02098
 77 N     2.14154   -1.06923    0.01670
 78 N    -2.19630   -1.08614    0.01562
 79 N     2.19427   -1.08176    0.02217
 80 N    -2.13618   -1.06425    0.02315
 81 Pb    0.72886    0.02438   -0.06761
 82 Pb   -0.72208   -0.75581   -0.06150
 83 Pb   -0.03347   -0.03672    0.68381
 84 Pb    0.03830    0.74901   -0.08065
 85 Pb   -0.80558    0.01898    0.06841
 86 Pb    0.80780   -0.74392    0.06267
 87 Pb   -0.03651   -0.02765   -0.68282
 88 Pb    0.04211    0.74682    0.07619

System changes: positions 

Initializing position-dependent things.

Density initialized from wave functions
         .-------Cl-----Pb-------------.  
        /|                             |  
       I |            Cl               |  
      /  |                             |  
     /   I   Cl     Pb  I              |  
    /    |               H    C    H   |  
   /     |     Cs         N     N      |  
  /      |       I        H     H      |  
 Pb  I   |          Cl  Pb             |  
 |    HI | CH   H    HCl  C    H       |  
 |     N |   N        N     N          |  
 |     H I   H      PbH I   H          |  
 |       |      H          I  H    Pb  |  
 |       |HN   C NI H    HN   C N  H   |  
 |       | H     H        H     HI     |  
 |   Cl  .----------Cl---------Pb------.  
 |      /  H           Cl  H          /   
 |    HN   C N  H    HN   C N  H     /    
 |    /H     H        H     H       /     
 |   /                     Cl      Pb     
 |  /                             /       
 | /              I              /        
 |/                             /         
 *---------------------I-------*          

Positions:
   0 C      9.184230    9.769230    9.191573    ( 0.0000,  0.0000,  0.0000)
   1 C      9.195803    3.653321    9.193615    ( 0.0000,  0.0000,  0.0000)
   2 C      3.061311    3.653252    9.195499    ( 0.0000,  0.0000,  0.0000)
   3 C      9.186770    9.771233    3.065655    ( 0.0000,  0.0000,  0.0000)
   4 C      3.068616    9.770869    3.061681    ( 0.0000,  0.0000,  0.0000)
   5 C      9.195973    3.656388    3.063467    ( 0.0000,  0.0000,  0.0000)
   6 C      3.061031    3.655959    3.061572    ( 0.0000,  0.0000,  0.0000)
   7 Cl     6.121521    9.190565   -0.003497    ( 0.0000,  0.0000,  0.0000)
   8 Cl     6.120496    9.193778    6.132150    ( 0.0000,  0.0000,  0.0000)
   9 Cl     3.065887   -0.003048   -0.001877    ( 0.0000,  0.0000,  0.0000)
  10 Cl     9.188658    6.128538    0.000742    ( 0.0000,  0.0000,  0.0000)
  11 Cl     3.068662    6.132568   -0.001346    ( 0.0000,  0.0000,  0.0000)
  12 Cl     9.191580    0.001410    6.127387    ( 0.0000,  0.0000,  0.0000)
  13 Cl     6.130153    6.115875    9.197123    ( 0.0000,  0.0000,  0.0000)
  14 Cl     0.000378    6.118903    3.062082    ( 0.0000,  0.0000,  0.0000)
  15 Cl     6.128120    6.117462    3.060126    ( 0.0000,  0.0000,  0.0000)
  16 Cs     3.072898    9.189756    9.199149    ( 0.0000,  0.0000,  0.0000)
  17 H      9.192616   10.725235    9.190970    ( 0.0000,  0.0000,  0.0000)
  18 H     11.212770    9.641958    9.192475    ( 0.0000,  0.0000,  0.0000)
  19 H     10.445007    7.962392    9.193666    ( 0.0000,  0.0000,  0.0000)
  20 H      7.934197    7.960592    9.193592    ( 0.0000,  0.0000,  0.0000)
  21 H      7.171883    9.640145    9.192448    ( 0.0000,  0.0000,  0.0000)
  22 H      9.192544    4.597306    9.194329    ( 0.0000,  0.0000,  0.0000)
  23 H     11.204955    3.516656    9.193180    ( 0.0000,  0.0000,  0.0000)
  24 H     10.447400    1.830275    9.191586    ( 0.0000,  0.0000,  0.0000)
  25 H      7.938287    1.830638    9.191611    ( 0.0000,  0.0000,  0.0000)
  26 H      7.183516    3.516361    9.193044    ( 0.0000,  0.0000,  0.0000)
  27 H      3.064758    4.597528    9.194364    ( 0.0000,  0.0000,  0.0000)
  28 H      5.073806    3.516068    9.193049    ( 0.0000,  0.0000,  0.0000)
  29 H      4.318751    1.830621    9.193912    ( 0.0000,  0.0000,  0.0000)
  30 H      1.809951    1.830312    9.193936    ( 0.0000,  0.0000,  0.0000)
  31 H      1.052050    3.516259    9.193174    ( 0.0000,  0.0000,  0.0000)
  32 H      9.192861   10.725080    3.066189    ( 0.0000,  0.0000,  0.0000)
  33 H     11.204201    9.643379    3.064689    ( 0.0000,  0.0000,  0.0000)
  34 H     10.450848    7.958188    3.063601    ( 0.0000,  0.0000,  0.0000)
  35 H      7.935523    7.960007    3.063641    ( 0.0000,  0.0000,  0.0000)
  36 H      7.180641    9.642521    3.064724    ( 0.0000,  0.0000,  0.0000)
  37 H      3.064322   10.725109    3.062608    ( 0.0000,  0.0000,  0.0000)
  38 H      5.076840    9.642492    3.063925    ( 0.0000,  0.0000,  0.0000)
  39 H      4.322007    7.959951    3.063764    ( 0.0000,  0.0000,  0.0000)
  40 H      1.805952    7.958232    3.063720    ( 0.0000,  0.0000,  0.0000)
  41 H      1.052837    9.643289    3.064017    ( 0.0000,  0.0000,  0.0000)
  42 H      9.193148    4.596586    3.062903    ( 0.0000,  0.0000,  0.0000)
  43 H     11.202408    3.515778    3.064036    ( 0.0000,  0.0000,  0.0000)
  44 H     10.446519    1.832053    3.065548    ( 0.0000,  0.0000,  0.0000)
  45 H      7.939451    1.831907    3.065549    ( 0.0000,  0.0000,  0.0000)
  46 H      7.184158    3.515194    3.064143    ( 0.0000,  0.0000,  0.0000)
  47 H      3.064043    4.596629    3.062841    ( 0.0000,  0.0000,  0.0000)
  48 H      5.073346    3.515167    3.064127    ( 0.0000,  0.0000,  0.0000)
  49 H      4.318158    1.831706    3.063276    ( 0.0000,  0.0000,  0.0000)
  50 H      1.810253    1.831865    3.063225    ( 0.0000,  0.0000,  0.0000)
  51 H      1.054410    3.515792    3.064024    ( 0.0000,  0.0000,  0.0000)
  52 I      0.009874    9.188758   -0.008034    ( 0.0000,  0.0000,  0.0000)
  53 I      0.001956    3.069742    0.002320    ( 0.0000,  0.0000,  0.0000)
  54 I      6.126543    3.074274    0.000770    ( 0.0000,  0.0000,  0.0000)
  55 I      0.006995    9.194557    6.136823    ( 0.0000,  0.0000,  0.0000)
  56 I     -0.001373    3.063878    6.126213    ( 0.0000,  0.0000,  0.0000)
  57 I      6.130153    3.066457    6.127785    ( 0.0000,  0.0000,  0.0000)
  58 I      9.189476    0.000921    0.000915    ( 0.0000,  0.0000,  0.0000)
  59 I      3.067908   -0.002332    6.130966    ( 0.0000,  0.0000,  0.0000)
  60 I      9.187533    6.132292    6.126432    ( 0.0000,  0.0000,  0.0000)
  61 I      3.069744    6.134279    6.127547    ( 0.0000,  0.0000,  0.0000)
  62 I      0.002506   -0.028916    9.192923    ( 0.0000,  0.0000,  0.0000)
  63 I      6.125854   -0.031238    9.193002    ( 0.0000,  0.0000,  0.0000)
  64 I      0.010717    6.114274    9.198408    ( 0.0000,  0.0000,  0.0000)
  65 I      0.000292   -0.028688    3.064353    ( 0.0000,  0.0000,  0.0000)
  66 I      6.128211   -0.030660    3.064273    ( 0.0000,  0.0000,  0.0000)
  67 N     10.469010    8.930350    9.191634    ( 0.0000,  0.0000,  0.0000)
  68 N      7.907168    8.919473    9.191766    ( 0.0000,  0.0000,  0.0000)
  69 N     10.461316    2.801139    9.191668    ( 0.0000,  0.0000,  0.0000)
  70 N      7.913959    2.807243    9.191749    ( 0.0000,  0.0000,  0.0000)
  71 N      4.343545    2.807261    9.191241    ( 0.0000,  0.0000,  0.0000)
  72 N      1.795557    2.801286    9.191164    ( 0.0000,  0.0000,  0.0000)
  73 N     10.475727    8.914068    3.065446    ( 0.0000,  0.0000,  0.0000)
  74 N      7.907276    8.915862    3.065405    ( 0.0000,  0.0000,  0.0000)
  75 N      4.350574    8.915658    3.066373    ( 0.0000,  0.0000,  0.0000)
  76 N      1.782901    8.914725    3.065883    ( 0.0000,  0.0000,  0.0000)
  77 N     10.468608    2.807518    3.065560    ( 0.0000,  0.0000,  0.0000)
  78 N      7.913024    2.806240    3.065478    ( 0.0000,  0.0000,  0.0000)
  79 N      4.344000    2.806571    3.065973    ( 0.0000,  0.0000,  0.0000)
  80 N      1.788975    2.807895    3.066047    ( 0.0000,  0.0000,  0.0000)
  81 Pb     0.055097    0.001843   -0.005111    ( 0.0000,  0.0000,  0.0000)
  82 Pb     6.074010   -0.057134   -0.004649    ( 0.0000,  0.0000,  0.0000)
  83 Pb    -0.002530    6.125819    0.051692    ( 0.0000,  0.0000,  0.0000)
  84 Pb     6.131489    6.185215   -0.006096    ( 0.0000,  0.0000,  0.0000)
  85 Pb    -0.060897    0.001435    6.133765    ( 0.0000,  0.0000,  0.0000)
  86 Pb     6.189659   -0.056236    6.133331    ( 0.0000,  0.0000,  0.0000)
  87 Pb    -0.002760    6.126504    6.076977    ( 0.0000,  0.0000,  0.0000)
  88 Pb     6.131777    6.185049    6.134354    ( 0.0000,  0.0000,  0.0000)

Unit cell:
           periodic     x           y           z      points  spacing
  1. axis:    yes   12.257188    0.000000    0.000000    75     0.1634
  2. axis:    yes    0.000000   12.257188    0.000000    75     0.1634
  3. axis:    yes    0.000000    0.000000   12.257188    75     0.1634

  Lengths:  12.257188  12.257188  12.257188
  Angles:   90.000000  90.000000  90.000000

Effective grid spacing dv^(1/3) = 0.1634

                     log10-error:    total        iterations:
           time      wfs    density  energy       poisson
iter:   1  01:08:19  +0.04         -437.969178           
iter:   2  01:21:21  -1.28  -0.98  -413.825990           
iter:   3  01:34:23  -1.09  -1.06  -394.294816           
iter:   4  01:47:25  -2.32  -1.54  -393.737512           
iter:   5  02:00:28  -1.51  -1.58  -391.808012           
iter:   6  02:13:30  -2.39  -1.70  -390.917484           
iter:   7  02:26:33  -2.29  -1.80  -390.028377           
iter:   8  02:39:35  -2.36  -2.05  -389.952824           
iter:   9  02:52:37  -2.88  -2.20  -389.911487           
iter:  10  03:05:39  -3.25  -2.41  -389.906730           
iter:  11  03:18:42  -3.80  -2.52  -389.899566           
iter:  12  03:31:44  -4.08  -2.69  -389.901073           
iter:  13  03:44:46  -4.18  -2.83  -389.896523           
iter:  14  03:57:49  -4.61  -2.96  -389.895870           
iter:  15  04:10:51  -5.24  -3.05  -389.896287           
iter:  16  04:23:53  -5.04  -3.12  -389.895829           
iter:  17  04:36:53  -5.70  -3.27  -389.895816           
iter:  18  04:49:53  -5.52  -3.32  -389.895688           
iter:  19  05:02:53  -5.49  -3.56  -389.895795           
iter:  20  05:15:55  -6.19  -3.62  -389.895710           
iter:  21  05:28:56  -6.23  -3.78  -389.895699           
iter:  22  05:41:57  -6.82  -3.99  -389.895688           
iter:  23  05:54:59  -6.49  -4.11  -389.895673           
iter:  24  06:08:02  -6.94  -4.38  -389.895673           
iter:  25  06:21:04  -7.72  -4.34  -389.895672           

Converged after 25 iterations.

Dipole moment: (-1.852798, 23.890825, -1.791648) |e|*Ang

Energy contributions relative to reference atoms: (reference = -7794476.916501)

Kinetic:       +473.525629
Potential:     -511.378044
External:        +0.000000
XC:            -352.963999
Entropy (-ST):   -0.000025
Local:           +0.920754
--------------------------
Free energy:   -389.895684
Extrapolated:  -389.895672

Showing only first 2 kpts
 Kpt  Band  Eigenvalues  Occupancy
  0   209      1.71850    0.03125
  0   210      2.10157    0.03123
  0   211      3.06112    0.00000
  0   212      3.07895    0.00000

  1   209      1.69224    0.06250
  1   210      1.93716    0.06250
  1   211      3.08388    0.00000
  1   212      3.09541    0.00000


Fermi level: 2.47110

Gap: 0.960 eV
Transition (v -> c):
  (s=0, k=0, n=210, [0.00, 0.00, 0.00]) -> (s=0, k=0, n=211, [0.00, 0.00, 0.00])

Forces in eV/Ang:
  0 C     0.04175  -16.24691    0.02388
  1 C    -0.14881  -17.13492   -0.03762
  2 C     0.14825  -17.11218   -0.04245
  3 C     0.00575  -16.71105   -0.03098
  4 C     0.01748  -16.66394    0.05717
  5 C    -0.09399  -17.39220    0.03988
  6 C     0.09915  -17.35062    0.04271
  7 Cl   -0.12478   -0.01022   -0.08500
  8 Cl   -0.09892    0.01110    0.08385
  9 Cl    0.01600   -0.08250    0.00483
 10 Cl   -0.04019   -0.01456    0.03058
 11 Cl    0.04420    0.04264   -0.00030
 12 Cl   -0.01090   -0.04111   -0.02281
 13 Cl   -0.01252   -0.24554    0.03727
 14 Cl    0.00200   -0.32671   -0.01748
 15 Cl   -0.00085   -0.30020   -0.03586
 16 Cs    0.09046   -0.03437    0.06743
 17 H    -0.01975    6.70616   -0.03529
 18 H     0.55352   -1.22508    0.00012
 19 H     0.28730   -2.35801    0.02286
 20 H    -0.37243   -2.94668    0.02282
 21 H    -0.64759   -1.32278    0.00064
 22 H     0.00177    7.61945    0.04463
 23 H     0.41625   -1.28396    0.00419
 24 H     0.26730   -2.24062   -0.00430
 25 H    -0.34306   -1.87245   -0.00326
 26 H    -0.75397   -0.97852    0.00454
 27 H    -0.00059    7.60446    0.03238
 28 H     0.76330   -0.97199    0.00747
 29 H     0.33266   -1.86977    0.01086
 30 H    -0.25408   -2.23288    0.01110
 31 H    -0.42808   -1.26929    0.00654
 32 H     0.01782    6.87456    0.03620
 33 H     0.48186   -1.34069   -0.00037
 34 H     0.35537   -3.15121   -0.02215
 35 H    -0.36707   -3.14639   -0.02201
 36 H    -0.61645   -1.28258   -0.00087
 37 H    -0.01515    6.84340   -0.02519
 38 H     0.61217   -1.28072   -0.00052
 39 H     0.37259   -3.15022   -0.02255
 40 H    -0.35846   -3.11590   -0.02071
 41 H    -0.46191   -1.35515   -0.00098
 42 H    -0.01047    7.92180   -0.04526
 43 H     0.70038   -1.05213   -0.00398
 44 H     0.30848   -1.92758    0.00191
 45 H    -0.31511   -1.97223    0.00249
 46 H    -0.79252   -0.95893   -0.00467
 47 H     0.01076    7.88388   -0.03200
 48 H     0.78888   -0.95742   -0.00792
 49 H     0.31798   -1.94722   -0.00960
 50 H    -0.31058   -1.90174   -0.00974
 51 H    -0.69125   -1.05596   -0.00697
 52 I     0.14475   -0.02594   -0.14587
 53 I     0.01914    0.03245    0.03059
 54 I    -0.02233    0.07162    0.01389
 55 I     0.11633   -0.00488    0.14521
 56 I    -0.01348    0.00892   -0.03027
 57 I     0.01787    0.02808   -0.01445
 58 I    -0.01760   -0.04128    0.02490
 59 I     0.02508   -0.06092   -0.01001
 60 I    -0.02002   -0.00607   -0.03361
 61 I     0.02750    0.01866   -0.01783
 62 I     0.01720   -0.58672    0.00133
 63 I    -0.02178   -0.62328    0.00151
 64 I     0.20342   -0.34625    0.02761
 65 I     0.00008   -0.61605   -0.00054
 66 I    -0.00094   -0.63432   -0.00072
 67 N    -5.75090    8.56178   -0.02786
 68 N     5.54157    9.14546   -0.03468
 69 N    -5.46342    8.66582   -0.00649
 70 N     5.96071    7.98772   -0.00815
 71 N    -5.97368    7.96863   -0.00456
 72 N     5.47914    8.63222   -0.00352
 73 N    -5.65521    9.43232    0.02891
 74 N     5.65487    9.37777    0.03595
 75 N    -5.66218    9.36089    0.00547
 76 N     5.62557    9.41534    0.00332
 77 N    -5.84863    8.14030    0.00761
 78 N     6.03747    8.10025    0.00842
 79 N    -6.03648    8.06896    0.00443
 80 N     5.83544    8.11403    0.00297
 81 Pb    0.53009    0.03110   -0.05268
 82 Pb   -0.51995   -0.47453   -0.04884
 83 Pb   -0.03327   -0.01549    0.44418
 84 Pb    0.03645    0.46718   -0.04586
 85 Pb   -0.55945    0.02782    0.05269
 86 Pb    0.55170   -0.48575    0.04909
 87 Pb   -0.02607   -0.01232   -0.45114
 88 Pb    0.02731    0.49307    0.04571

System changes: positions 

Initializing position-dependent things.

Density initialized from wave functions
         .-------Cl-----Pb-------------.  
        /|                             |  
       I |            Cl               |  
      /  |                             |  
     /   I   Cl     Pb  I              |  
    /    |               H    C   H    |  
   /     |     Cs          N    N      |  
  /      |       I        H     H      |  
 Pb  I   |          Cl  Pb             |  
 |    HI | C   H     HCl  C   H        |  
 |      N|   N         N    N          |  
 |     H I   H      PbH I   H          |  
 |       |     H           I  H    Pb  |  
 |       |H N  C NIH     H N  C N H    |  
 |       | H     H        H     HI     |  
 |   Cl  .----------Cl---------Pb------.  
 |      /  H           Cl H           /   
 |    H/N  C N H     H N  C N H      /    
 |    /H     H        H     H       /     
 |   /                     Cl      Pb     
 |  /                             /       
 | /              I              /        
 |/                             /         
 *---------------------I-------*          

Positions:
   0 C      9.191480    9.626213    9.192676    ( 0.0000,  0.0000,  0.0000)
   1 C      9.193373    3.499694    9.193010    ( 0.0000,  0.0000,  0.0000)
   2 C      3.063814    3.499683    9.193318    ( 0.0000,  0.0000,  0.0000)
   3 C      9.191896    9.626541    3.064519    ( 0.0000,  0.0000,  0.0000)
   4 C      3.065010    9.626481    3.063869    ( 0.0000,  0.0000,  0.0000)
   5 C      9.193401    3.500196    3.064161    ( 0.0000,  0.0000,  0.0000)
   6 C      3.063769    3.500126    3.063851    ( 0.0000,  0.0000,  0.0000)
   7 Cl     6.127437    9.192511   -0.000572    ( 0.0000,  0.0000,  0.0000)
   8 Cl     6.127269    9.193036    6.129176    ( 0.0000,  0.0000,  0.0000)
   9 Cl     3.064557   -0.000499   -0.000307    ( 0.0000,  0.0000,  0.0000)
  10 Cl     9.192199    6.128585    0.000121    ( 0.0000,  0.0000,  0.0000)
  11 Cl     3.065011    6.129244   -0.000220    ( 0.0000,  0.0000,  0.0000)
  12 Cl     9.192677    0.000231    6.128397    ( 0.0000,  0.0000,  0.0000)
  13 Cl     6.128849    6.126513    9.193584    ( 0.0000,  0.0000,  0.0000)
  14 Cl     0.000062    6.127009    3.063935    ( 0.0000,  0.0000,  0.0000)
  15 Cl     6.128517    6.126773    3.063615    ( 0.0000,  0.0000,  0.0000)
  16 Cs     3.065704    9.192378    9.193915    ( 0.0000,  0.0000,  0.0000)
  17 H      9.192847   10.680518    9.192577    ( 0.0000,  0.0000,  0.0000)
  18 H     11.121526    9.604857    9.192823    ( 0.0000,  0.0000,  0.0000)
  19 H     10.433053    8.012267    9.193018    ( 0.0000,  0.0000,  0.0000)
  20 H      7.951654    8.011973    9.193006    ( 0.0000,  0.0000,  0.0000)
  21 H      7.264073    9.604560    9.192819    ( 0.0000,  0.0000,  0.0000)
  22 H      9.192835    4.552032    9.193127    ( 0.0000,  0.0000,  0.0000)
  23 H     11.120248    3.476801    9.192939    ( 0.0000,  0.0000,  0.0000)
  24 H     10.433445    1.883096    9.192678    ( 0.0000,  0.0000,  0.0000)
  25 H      7.952323    1.883156    9.192682    ( 0.0000,  0.0000,  0.0000)
  26 H      7.265976    3.476753    9.192916    ( 0.0000,  0.0000,  0.0000)
  27 H      3.064373    4.552069    9.193132    ( 0.0000,  0.0000,  0.0000)
  28 H      4.991235    3.476705    9.192917    ( 0.0000,  0.0000,  0.0000)
  29 H      4.304842    1.883153    9.193058    ( 0.0000,  0.0000,  0.0000)
  30 H      1.823772    1.883102    9.193062    ( 0.0000,  0.0000,  0.0000)
  31 H      1.136912    3.476736    9.192938    ( 0.0000,  0.0000,  0.0000)
  32 H      9.192887   10.680492    3.064607    ( 0.0000,  0.0000,  0.0000)
  33 H     11.120124    9.605089    3.064361    ( 0.0000,  0.0000,  0.0000)
  34 H     10.434009    8.011579    3.064183    ( 0.0000,  0.0000,  0.0000)
  35 H      7.951871    8.011877    3.064190    ( 0.0000,  0.0000,  0.0000)
  36 H      7.265506    9.604949    3.064367    ( 0.0000,  0.0000,  0.0000)
  37 H      3.064302   10.680497    3.064021    ( 0.0000,  0.0000,  0.0000)
  38 H      4.991732    9.604944    3.064236    ( 0.0000,  0.0000,  0.0000)
  39 H      4.305374    8.011868    3.064210    ( 0.0000,  0.0000,  0.0000)
  40 H      1.823117    8.011586    3.064203    ( 0.0000,  0.0000,  0.0000)
  41 H      1.137041    9.605075    3.064251    ( 0.0000,  0.0000,  0.0000)
  42 H      9.192934    4.551914    3.064069    ( 0.0000,  0.0000,  0.0000)
  43 H     11.119831    3.476658    3.064254    ( 0.0000,  0.0000,  0.0000)
  44 H     10.433301    1.883387    3.064502    ( 0.0000,  0.0000,  0.0000)
  45 H      7.952514    1.883363    3.064502    ( 0.0000,  0.0000,  0.0000)
  46 H      7.266081    3.476562    3.064272    ( 0.0000,  0.0000,  0.0000)
  47 H      3.064256    4.551921    3.064059    ( 0.0000,  0.0000,  0.0000)
  48 H      4.991160    3.476558    3.064269    ( 0.0000,  0.0000,  0.0000)
  49 H      4.304745    1.883331    3.064130    ( 0.0000,  0.0000,  0.0000)
  50 H      1.823821    1.883357    3.064122    ( 0.0000,  0.0000,  0.0000)
  51 H      1.137298    3.476660    3.064253    ( 0.0000,  0.0000,  0.0000)
  52 I      0.001615    9.192215   -0.001314    ( 0.0000,  0.0000,  0.0000)
  53 I      0.000320    3.065188    0.000380    ( 0.0000,  0.0000,  0.0000)
  54 I      6.128259    3.065929    0.000126    ( 0.0000,  0.0000,  0.0000)
  55 I      0.001145    9.193164    6.129941    ( 0.0000,  0.0000,  0.0000)
  56 I     -0.000225    3.064229    6.128205    ( 0.0000,  0.0000,  0.0000)
  57 I      6.128849    3.064651    6.128462    ( 0.0000,  0.0000,  0.0000)
  58 I      9.192333    0.000151    0.000150    ( 0.0000,  0.0000,  0.0000)
  59 I      3.064888   -0.000381    6.128982    ( 0.0000,  0.0000,  0.0000)
  60 I      9.192015    6.129199    6.128241    ( 0.0000,  0.0000,  0.0000)
  61 I      3.065188    6.129524    6.128423    ( 0.0000,  0.0000,  0.0000)
  62 I      0.000410   -0.004731    9.192897    ( 0.0000,  0.0000,  0.0000)
  63 I      6.128146   -0.005111    9.192909    ( 0.0000,  0.0000,  0.0000)
  64 I      0.001753    6.126251    9.193794    ( 0.0000,  0.0000,  0.0000)
  65 I      0.000048   -0.004694    3.064306    ( 0.0000,  0.0000,  0.0000)
  66 I      6.128532   -0.005016    3.064293    ( 0.0000,  0.0000,  0.0000)
  67 N     10.333274    9.002772    9.192686    ( 0.0000,  0.0000,  0.0000)
  68 N      8.050929    9.000993    9.192707    ( 0.0000,  0.0000,  0.0000)
  69 N     10.332015    2.874077    9.192691    ( 0.0000,  0.0000,  0.0000)
  70 N      8.052040    2.875076    9.192704    ( 0.0000,  0.0000,  0.0000)
  71 N      4.205191    2.875079    9.192621    ( 0.0000,  0.0000,  0.0000)
  72 N      1.925113    2.874101    9.192609    ( 0.0000,  0.0000,  0.0000)
  73 N     10.334373    9.000108    3.064485    ( 0.0000,  0.0000,  0.0000)
  74 N      8.050946    9.000402    3.064478    ( 0.0000,  0.0000,  0.0000)
  75 N      4.206341    9.000369    3.064637    ( 0.0000,  0.0000,  0.0000)
  76 N      1.923043    9.000216    3.064557    ( 0.0000,  0.0000,  0.0000)
  77 N     10.333208    2.875121    3.064504    ( 0.0000,  0.0000,  0.0000)
  78 N      8.051887    2.874912    3.064490    ( 0.0000,  0.0000,  0.0000)
  79 N      4.205266    2.874966    3.064571    ( 0.0000,  0.0000,  0.0000)
  80 N      1.924036    2.875183    3.064583    ( 0.0000,  0.0000,  0.0000)
  81 Pb     0.009015    0.000302   -0.000836    ( 0.0000,  0.0000,  0.0000)
  82 Pb     6.119664   -0.009348   -0.000761    ( 0.0000,  0.0000,  0.0000)
  83 Pb    -0.000414    6.128140    0.008457    ( 0.0000,  0.0000,  0.0000)
  84 Pb     6.129068    6.137858   -0.000997    ( 0.0000,  0.0000,  0.0000)
  85 Pb    -0.009963    0.000235    6.129440    ( 0.0000,  0.0000,  0.0000)
  86 Pb     6.138585   -0.009201    6.129369    ( 0.0000,  0.0000,  0.0000)
  87 Pb    -0.000452    6.128252    6.120149    ( 0.0000,  0.0000,  0.0000)
  88 Pb     6.129115    6.137831    6.129537    ( 0.0000,  0.0000,  0.0000)

Unit cell:
           periodic     x           y           z      points  spacing
  1. axis:    yes   12.257188    0.000000    0.000000    75     0.1634
  2. axis:    yes    0.000000   12.257188    0.000000    75     0.1634
  3. axis:    yes    0.000000    0.000000   12.257188    75     0.1634

  Lengths:  12.257188  12.257188  12.257188
  Angles:   90.000000  90.000000  90.000000

Effective grid spacing dv^(1/3) = 0.1634

                     log10-error:    total        iterations:
           time      wfs    density  energy       poisson
iter:   1  06:41:33  -0.34         -430.052487           
iter:   2  06:54:36  -1.86  -1.32  -426.108644           
iter:   3  07:07:38  -0.24  -1.35  -414.134714           
iter:   4  07:20:40  -1.30  -1.53  -410.384839           
iter:   5  07:33:42  -2.16  -1.83  -410.389788           
iter:   6  07:46:43  -2.19  -1.85  -410.072826           
iter:   7  07:59:46  -2.42  -2.04  -409.961659           
iter:   8  08:12:49  -2.86  -2.18  -409.880444           
iter:   9  08:25:51  -3.43  -2.48  -409.882435           
iter:  10  08:38:53  -3.59  -2.62  -409.879984           
iter:  11  08:51:55  -4.32  -2.90  -409.878688           
iter:  12  09:04:58  -4.96  -3.11  -409.878714           
iter:  13  09:18:00  -5.24  -3.17  -409.878604           
iter:  14  09:31:02  -5.27  -3.22  -409.878583           
iter:  15  09:44:05  -5.45  -3.40  -409.878536           
iter:  16  09:57:08  -5.51  -3.47  -409.878646           
iter:  17  10:10:10  -5.67  -3.64  -409.878487           
iter:  18  10:23:13  -6.42  -4.20  -409.878490           
iter:  19  10:36:18  -6.78  -4.25  -409.878483           
iter:  20  10:49:22  -7.04  -4.40  -409.878481           
iter:  21  11:02:26  -7.94  -4.64  -409.878481           

Converged after 21 iterations.

Dipole moment: (0.114595, 3.628956, -0.050615) |e|*Ang

Energy contributions relative to reference atoms: (reference = -7794476.916501)

Kinetic:       +620.226934
Potential:     -637.966559
External:        +0.000000
XC:            -392.985932
Entropy (-ST):   -0.000000
Local:           +0.847077
--------------------------
Free energy:   -409.878481
Extrapolated:  -409.878481

Showing only first 2 kpts
 Kpt  Band  Eigenvalues  Occupancy
  0   209      1.73269    0.03125
  0   210      2.13437    0.03125
  0   211      3.46164    0.00000
  0   212      3.54741    0.00000

  1   209      1.69523    0.06250
  1   210      1.96478    0.06250
  1   211      3.62428    0.00000
  1   212      3.70552    0.00000


Fermi level: 2.77416

Gap: 1.327 eV
Transition (v -> c):
  (s=0, k=0, n=210, [0.00, 0.00, 0.00]) -> (s=0, k=0, n=211, [0.00, 0.00, 0.00])

Forces in eV/Ang:
  0 C    -0.07139   -1.70628   -0.01536
  1 C    -0.06897   -1.61678    0.00637
  2 C     0.06993   -1.61698    0.02421
  3 C    -0.00154   -1.81807    0.01520
  4 C     0.02178   -1.81301   -0.02484
  5 C    -0.04764   -1.63171   -0.00748
  6 C     0.05043   -1.62735   -0.02529
  7 Cl   -0.09958   -0.03139   -0.05273
  8 Cl   -0.10495    0.01031    0.05327
  9 Cl    0.02010   -0.04578   -0.01740
 10 Cl   -0.05446   -0.00487    0.01402
 11 Cl    0.05655    0.04806   -0.01306
 12 Cl   -0.01677    0.00896   -0.01786
 13 Cl    0.01585   -0.17493    0.05484
 14 Cl    0.00482   -0.15659   -0.02860
 15 Cl   -0.00561   -0.16659   -0.05384
 16 Cs    0.11042   -0.04100    0.08091
 17 H    -0.01737    1.35593   -0.02587
 18 H     1.30713    0.29819   -0.00482
 19 H     0.25384   -1.05173    0.01131
 20 H    -0.35239   -1.15435    0.01038
 21 H    -1.34368    0.26853   -0.00505
 22 H     0.00004    1.44827    0.02224
 23 H     1.19800    0.32558    0.00417
 24 H     0.26836   -1.06803   -0.01563
 25 H    -0.28009   -1.02014   -0.01519
 26 H    -1.24935    0.38379    0.00258
 27 H     0.00109    1.45024    0.02313
 28 H     1.25248    0.38175    0.00289
 29 H     0.27676   -1.02074    0.01134
 30 H    -0.26453   -1.06730    0.01153
 31 H    -1.20227    0.32336    0.00434
 32 H    -0.00417    1.36597    0.02560
 33 H     1.21520    0.30722    0.00450
 34 H     0.34361   -1.20265   -0.01014
 35 H    -0.34164   -1.18653   -0.00972
 36 H    -1.25382    0.30856    0.00485
 37 H     0.00308    1.36346   -0.02403
 38 H     1.25671    0.30906   -0.00454
 39 H     0.34624   -1.18776   -0.00696
 40 H    -0.34652   -1.19639   -0.00756
 41 H    -1.21125    0.30275   -0.00360
 42 H     0.00359    1.46767   -0.02185
 43 H     1.23871    0.36426   -0.00376
 44 H     0.26409   -1.01193    0.01477
 45 H    -0.26584   -1.02166    0.01477
 46 H    -1.25159    0.37479   -0.00262
 47 H    -0.00372    1.46508   -0.02293
 48 H     1.25375    0.37445   -0.00308
 49 H     0.27016   -1.02004   -0.01110
 50 H    -0.26819   -1.00984   -0.01169
 51 H    -1.24015    0.36328   -0.00415
 52 I     0.13567   -0.05131   -0.11460
 53 I     0.02628    0.06761    0.03083
 54 I    -0.02732    0.12388    0.01093
 55 I     0.09781    0.01686    0.11705
 56 I    -0.01655   -0.00139   -0.03131
 57 I     0.01909    0.02996   -0.01140
 58 I    -0.03949    0.00788    0.01448
 59 I     0.04328   -0.03274    0.02619
 60 I    -0.06244    0.04141   -0.02946
 61 I     0.06434    0.06741   -0.01442
 62 I     0.03429   -0.41166    0.00096
 63 I    -0.03780   -0.44505    0.00140
 64 I     0.15343   -0.20764    0.06511
 65 I     0.00445   -0.40843    0.00021
 66 I    -0.00551   -0.43457   -0.00025
 67 N    -0.52770    1.07819   -0.01687
 68 N     0.39408    1.02946   -0.01634
 69 N    -0.48132    1.04173   -0.01551
 70 N     0.53760    1.05123   -0.01470
 71 N    -0.53869    1.04930   -0.01821
 72 N     0.48163    1.03937   -0.01887
 73 N    -0.54874    1.05491    0.01543
 74 N     0.46338    1.03607    0.01614
 75 N    -0.47061    1.03942    0.02296
 76 N     0.53371    1.04793    0.01698
 77 N    -0.51770    1.05217    0.01590
 78 N     0.57204    1.06737    0.01510
 79 N    -0.56944    1.06503    0.01848
 80 N     0.51134    1.04881    0.01913
 81 Pb    0.69829    0.02751   -0.06384
 82 Pb   -0.69190   -0.70380   -0.05828
 83 Pb   -0.03219   -0.03612    0.64522
 84 Pb    0.03615    0.69782   -0.07567
 85 Pb   -0.76224    0.02365    0.06451
 86 Pb    0.76363   -0.69514    0.05922
 87 Pb   -0.03258   -0.02971   -0.64556
 88 Pb    0.03718    0.69819    0.07138

System changes: positions 

Initializing position-dependent things.

Density initialized from wave functions
         .-------Cl-----Pb-------------.  
        /|                             |  
       I |            Cl               |  
      /  |                             |  
     /   I   Cl     Pb  I              |  
    /    |               H    CH   H   |  
   /     |     Cs         N     N      |  
  /      |       I       H      H      |  
 Pb  I   |          Cl  Pb             |  
 |    HI | CH   H    HCl  CH   H       |  
 |     N |   N        N     N          |  
 |     H I   H      PbH I   H          |  
 |       |      H          I   H   Pb  |  
 |       |HN   C NI H    HN   C N  H   |  
 |       |H      H       H      HI     |  
 |   Cl  .----------Cl---------Pb------.  
 |      /   H          Cl  H          /   
 |    HN   C N  H    HN   C N  H     /    
 |    /H     H        H     H       /     
 |   /                     Cl      Pb     
 |  /                             /       
 | /              I              /        
 |/                             /         
 *---------------------I-------*          

Positions:
   0 C      9.179321    9.591835    9.190430    ( 0.0000,  0.0000,  0.0000)
   1 C      9.189269    3.481792    9.194061    ( 0.0000,  0.0000,  0.0000)
   2 C      3.067943    3.481717    9.197217    ( 0.0000,  0.0000,  0.0000)
   3 C      9.187608    9.583677    3.066778    ( 0.0000,  0.0000,  0.0000)
   4 C      3.069849    9.583817    3.059910    ( 0.0000,  0.0000,  0.0000)
   5 C      9.191290    3.483058    3.062940    ( 0.0000,  0.0000,  0.0000)
   6 C      3.065991    3.483081    3.059778    ( 0.0000,  0.0000,  0.0000)
   7 Cl     6.113876    9.188170   -0.007585    ( 0.0000,  0.0000,  0.0000)
   8 Cl     6.112542    9.194545    6.136275    ( 0.0000,  0.0000,  0.0000)
   9 Cl     3.067404   -0.006595   -0.003111    ( 0.0000,  0.0000,  0.0000)
  10 Cl     9.184535    6.128119    0.001858    ( 0.0000,  0.0000,  0.0000)
  11 Cl     3.072948    6.136168   -0.002282    ( 0.0000,  0.0000,  0.0000)
  12 Cl     9.190312    0.001975    6.126006    ( 0.0000,  0.0000,  0.0000)
  13 Cl     6.131301    6.102492    9.201280    ( 0.0000,  0.0000,  0.0000)
  14 Cl     0.000742    6.106654    3.059916    ( 0.0000,  0.0000,  0.0000)
  15 Cl     6.127701    6.104562    3.056048    ( 0.0000,  0.0000,  0.0000)
  16 Cs     3.081254    9.186644    9.205280    ( 0.0000,  0.0000,  0.0000)
  17 H      9.191130   10.836131    9.188997    ( 0.0000,  0.0000,  0.0000)
  18 H     11.310535    9.661168    9.192116    ( 0.0000,  0.0000,  0.0000)
  19 H     10.465087    7.879259    9.194539    ( 0.0000,  0.0000,  0.0000)
  20 H      7.906485    7.868710    9.194395    ( 0.0000,  0.0000,  0.0000)
  21 H      7.071080    9.657031    9.192074    ( 0.0000,  0.0000,  0.0000)
  22 H      9.192603    4.716227    9.196059    ( 0.0000,  0.0000,  0.0000)
  23 H     11.294352    3.537755    9.193501    ( 0.0000,  0.0000,  0.0000)
  24 H     10.468378    1.746267    9.190417    ( 0.0000,  0.0000,  0.0000)
  25 H      7.916291    1.750789    9.190477    ( 0.0000,  0.0000,  0.0000)
  26 H      7.089172    3.542632    9.193247    ( 0.0000,  0.0000,  0.0000)
  27 H      3.064781    4.716587    9.196167    ( 0.0000,  0.0000,  0.0000)
  28 H      5.168406    3.542206    9.193278    ( 0.0000,  0.0000,  0.0000)
  29 H      4.340478    1.750721    9.194748    ( 0.0000,  0.0000,  0.0000)
  30 H      1.789284    1.746362    9.194785    ( 0.0000,  0.0000,  0.0000)
  31 H      0.962307    3.537225    9.193511    ( 0.0000,  0.0000,  0.0000)
  32 H      9.192498   10.836885    3.068143    ( 0.0000,  0.0000,  0.0000)
  33 H     11.295232    9.663158    3.065023    ( 0.0000,  0.0000,  0.0000)
  34 H     10.477905    7.862434    3.062819    ( 0.0000,  0.0000,  0.0000)
  35 H      7.908547    7.865384    3.062889    ( 0.0000,  0.0000,  0.0000)
  36 H      7.086359    9.662554    3.065084    ( 0.0000,  0.0000,  0.0000)
  37 H      3.064590   10.836688    3.060760    ( 0.0000,  0.0000,  0.0000)
  38 H      5.171330    9.662574    3.063585    ( 0.0000,  0.0000,  0.0000)
  39 H      4.349335    7.865229    3.063235    ( 0.0000,  0.0000,  0.0000)
  40 H      1.778702    7.863023    3.063146    ( 0.0000,  0.0000,  0.0000)
  41 H      0.962178    9.662690    3.063744    ( 0.0000,  0.0000,  0.0000)
  42 H      9.193424    4.717330    3.061200    ( 0.0000,  0.0000,  0.0000)
  43 H     11.295794    3.540422    3.063746    ( 0.0000,  0.0000,  0.0000)
  44 H     10.467261    1.752702    3.066650    ( 0.0000,  0.0000,  0.0000)
  45 H      7.918525    1.751722    3.066651    ( 0.0000,  0.0000,  0.0000)
  46 H      7.089514    3.540857    3.063937    ( 0.0000,  0.0000,  0.0000)
  47 H      3.063756    4.717137    3.061053    ( 0.0000,  0.0000,  0.0000)
  48 H      5.168130    3.540806    3.063883    ( 0.0000,  0.0000,  0.0000)
  49 H      4.339399    1.751696    3.062461    ( 0.0000,  0.0000,  0.0000)
  50 H      1.789216    1.752728    3.062366    ( 0.0000,  0.0000,  0.0000)
  51 H      0.960957    3.540347    3.063702    ( 0.0000,  0.0000,  0.0000)
  52 I      0.020251    9.184897   -0.016849    ( 0.0000,  0.0000,  0.0000)
  53 I      0.003959    3.074830    0.004666    ( 0.0000,  0.0000,  0.0000)
  54 I      6.124463    3.083597    0.001610    ( 0.0000,  0.0000,  0.0000)
  55 I      0.014496    9.195777    6.145822    ( 0.0000,  0.0000,  0.0000)
  56 I     -0.002613    3.063823    6.123834    ( 0.0000,  0.0000,  0.0000)
  57 I      6.131587    3.068752    6.126909    ( 0.0000,  0.0000,  0.0000)
  58 I      9.186542    0.001468    0.002044    ( 0.0000,  0.0000,  0.0000)
  59 I      3.071146   -0.004844    6.132895    ( 0.0000,  0.0000,  0.0000)
  60 I      9.182886    6.135351    6.124182    ( 0.0000,  0.0000,  0.0000)
  61 I      3.074544    6.139311    6.126444    ( 0.0000,  0.0000,  0.0000)
  62 I      0.005127   -0.060569    9.193003    ( 0.0000,  0.0000,  0.0000)
  63 I      6.122961   -0.065463    9.193108    ( 0.0000,  0.0000,  0.0000)
  64 I      0.022524    6.098266    9.203265    ( 0.0000,  0.0000,  0.0000)
  65 I      0.000638   -0.060093    3.064362    ( 0.0000,  0.0000,  0.0000)
  66 I      6.127787   -0.064054    3.064254    ( 0.0000,  0.0000,  0.0000)
  67 N     10.396770    9.039036    9.190349    ( 0.0000,  0.0000,  0.0000)
  68 N      7.969166    9.025595    9.190505    ( 0.0000,  0.0000,  0.0000)
  69 N     10.394382    2.906712    9.190496    ( 0.0000,  0.0000,  0.0000)
  70 N      7.987516    2.912684    9.190636    ( 0.0000,  0.0000,  0.0000)
  71 N      4.269841    2.912528    9.189900    ( 0.0000,  0.0000,  0.0000)
  72 N      1.862566    2.906628    9.189776    ( 0.0000,  0.0000,  0.0000)
  73 N     10.400569    9.023290    3.066622    ( 0.0000,  0.0000,  0.0000)
  74 N      7.975358    9.023141    3.066649    ( 0.0000,  0.0000,  0.0000)
  75 N      4.281747    9.023264    3.068065    ( 0.0000,  0.0000,  0.0000)
  76 N      1.856506    9.023228    3.067126    ( 0.0000,  0.0000,  0.0000)
  77 N     10.397313    2.912998    3.066760    ( 0.0000,  0.0000,  0.0000)
  78 N      7.989761    2.913261    3.066620    ( 0.0000,  0.0000,  0.0000)
  79 N      4.267516    2.913333    3.067334    ( 0.0000,  0.0000,  0.0000)
  80 N      1.859646    2.913019    3.067454    ( 0.0000,  0.0000,  0.0000)
  81 Pb     0.107829    0.003972   -0.009921    ( 0.0000,  0.0000,  0.0000)
  82 Pb     6.021758   -0.110029   -0.009042    ( 0.0000,  0.0000,  0.0000)
  83 Pb    -0.004963    6.123079    0.100292    ( 0.0000,  0.0000,  0.0000)
  84 Pb     6.134213    6.237664   -0.011791    ( 0.0000,  0.0000,  0.0000)
  85 Pb    -0.118339    0.003290    6.138624    ( 0.0000,  0.0000,  0.0000)
  86 Pb     6.247197   -0.108510    6.137794    ( 0.0000,  0.0000,  0.0000)
  87 Pb    -0.005190    6.124220    6.028334    ( 0.0000,  0.0000,  0.0000)
  88 Pb     6.134546    6.237558    6.139724    ( 0.0000,  0.0000,  0.0000)

Unit cell:
           periodic     x           y           z      points  spacing
  1. axis:    yes   12.257188    0.000000    0.000000    75     0.1634
  2. axis:    yes    0.000000   12.257188    0.000000    75     0.1634
  3. axis:    yes    0.000000    0.000000   12.257188    75     0.1634

  Lengths:  12.257188  12.257188  12.257188
  Angles:   90.000000  90.000000  90.000000

Effective grid spacing dv^(1/3) = 0.1634

                     log10-error:    total        iterations:
           time      wfs    density  energy       poisson
iter:   1  11:22:56  -0.19         -419.570689           
iter:   2  11:36:00  -1.62  -1.24  -414.490246           
iter:   3  11:49:04  -1.99  -1.36  -409.307519           
iter:   4  12:02:08  -1.36  -1.50  -403.670867           
iter:   5  12:15:11  -2.18  -1.80  -403.383109           
iter:   6  12:28:15  -1.75  -1.83  -403.327002           
iter:   7  12:41:20  -2.10  -1.97  -402.757408           
iter:   8  12:54:24  -2.47  -2.16  -402.731422           
iter:   9  13:07:27  -3.15  -2.31  -402.709788           
iter:  10  13:20:30  -3.93  -2.63  -402.703355           
iter:  11  13:33:33  -3.86  -2.64  -402.705261           
iter:  12  13:46:37  -4.12  -2.87  -402.705518           
iter:  13  13:59:40  -5.13  -3.11  -402.704478           
iter:  14  14:12:43  -5.07  -3.15  -402.704211           
iter:  15  14:25:45  -5.74  -3.16  -402.704114           
iter:  16  14:38:48  -4.97  -3.18  -402.704232           
iter:  17  14:51:52  -5.18  -3.43  -402.704327           
iter:  18  15:04:57  -5.94  -3.53  -402.704184           
iter:  19  15:18:01  -6.61  -3.60  -402.704155           
iter:  20  15:31:07  -5.79  -3.62  -402.704178           
iter:  21  15:44:11  -5.78  -3.83  -402.704066           
iter:  22  15:57:14  -7.01  -4.12  -402.704060           
iter:  23  16:10:17  -6.68  -4.19  -402.704067           
iter:  24  16:23:18  -6.73  -4.22  -402.704050           
iter:  25  16:36:18  -8.02  -4.51  -402.704050           

Converged after 25 iterations.

Dipole moment: (-4.624132, 47.533073, -3.577541) |e|*Ang

Energy contributions relative to reference atoms: (reference = -7794476.916501)

Kinetic:       +382.561269
Potential:     -451.622574
External:        +0.000000
XC:            -334.481490
Entropy (-ST):   -0.000000
Local:           +0.838744
--------------------------
Free energy:   -402.704050
Extrapolated:  -402.704050

Showing only first 2 kpts
 Kpt  Band  Eigenvalues  Occupancy
  0   209      1.70708    0.03125
  0   210      2.06860    0.03125
  0   211      3.39842    0.00000
  0   212      3.52233    0.00000

  1   209      1.67117    0.06250
  1   210      1.93001    0.06250
  1   211      3.59872    0.00000
  1   212      3.68337    0.00000


Fermi level: 2.71203

Gap: 1.330 eV
Transition (v -> c):
  (s=0, k=0, n=210, [0.00, 0.00, 0.00]) -> (s=0, k=0, n=211, [0.00, 0.00, 0.00])

Forces in eV/Ang:
  0 C     0.24516    3.28709   -0.02159
  1 C     0.21402    3.10407    0.01006
  2 C    -0.21465    3.11197   -0.04492
  3 C     0.02261    3.32234    0.02177
  4 C    -0.07190    3.30396    0.04456
  5 C     0.10746    3.25059   -0.01102
  6 C    -0.11894    3.23873    0.04365
  7 Cl   -0.14013    0.01747   -0.08262
  8 Cl   -0.07663    0.02607    0.07895
  9 Cl    0.01753   -0.07447   -0.04016
 10 Cl   -0.03223    0.06547    0.05177
 11 Cl    0.03772    0.12270    0.01796
 12 Cl   -0.01128   -0.01034   -0.01433
 13 Cl    0.05902   -0.13167    0.03006
 14 Cl    0.00225   -0.16371   -0.01015
 15 Cl   -0.00338   -0.11221   -0.02748
 16 Cs    0.05300   -0.07276    0.04008
 17 H    -0.12674   -3.23516    0.00537
 18 H    -2.36017   -1.46410   -0.00272
 19 H     0.30909    3.50273   -0.00198
 20 H    -0.37503    3.57753   -0.00381
 21 H     2.13397   -1.50835   -0.00099
 22 H    -0.00111   -3.13082    0.02037
 23 H    -2.33274   -1.39254   -0.00018
 24 H     0.22746    3.55717    0.01584
 25 H    -0.28286    3.59240    0.01593
 26 H     2.40479   -1.47727    0.00109
 27 H    -0.00030   -3.13145    0.03176
 28 H    -2.40654   -1.48507    0.00668
 29 H     0.28384    3.58490   -0.03994
 30 H    -0.22474    3.55136   -0.04128
 31 H     2.33320   -1.39381    0.00527
 32 H    -0.02731   -3.35743   -0.00780
 33 H    -2.34209   -1.46839    0.00192
 34 H     0.27499    3.65417    0.00732
 35 H    -0.38370    3.57335    0.00583
 36 H     2.24304   -1.44823    0.00056
 37 H     0.02927   -3.35469   -0.00496
 38 H    -2.25400   -1.45290    0.00796
 39 H     0.38070    3.57792    0.02085
 40 H    -0.27438    3.64857    0.01771
 41 H     2.33942   -1.46470    0.00363
 42 H    -0.02587   -3.14654   -0.01787
 43 H    -2.42268   -1.50247    0.00107
 44 H     0.27785    3.57421   -0.01598
 45 H    -0.25564    3.59664   -0.01565
 46 H     2.42871   -1.48266   -0.00108
 47 H     0.02641   -3.14201   -0.02947
 48 H    -2.43054   -1.48184   -0.00702
 49 H     0.25767    3.59352    0.04011
 50 H    -0.28060    3.57091    0.04127
 51 H     2.42253   -1.50101   -0.00506
 52 I     0.14273    0.01262   -0.13421
 53 I     0.01787   -0.02027    0.03719
 54 I    -0.02736    0.01009    0.01575
 55 I     0.11448   -0.00393    0.13150
 56 I    -0.00475   -0.01021   -0.03483
 57 I     0.01692   -0.01240   -0.01577
 58 I    -0.01327    0.02271    0.01885
 59 I     0.02148   -0.03328    0.04266
 60 I     0.01638    0.07136   -0.04009
 61 I    -0.00397    0.09218   -0.02285
 62 I     0.05031   -0.33501    0.00385
 63 I    -0.05780   -0.35410    0.00397
 64 I     0.07829   -0.20836    0.00368
 65 I     0.00493   -0.35595   -0.00142
 66 I    -0.00675   -0.35739   -0.00092
 67 N    -0.23297   -2.03119    0.00492
 68 N     0.13121   -2.11864   -0.00056
 69 N    -0.08310   -1.86816   -0.01071
 70 N    -0.18714   -1.86657   -0.01198
 71 N     0.17665   -1.85573    0.03776
 72 N     0.10259   -1.87011    0.04086
 73 N    -0.14565   -2.23112   -0.00627
 74 N     0.24268   -2.21031    0.00015
 75 N    -0.21205   -2.21421   -0.04102
 76 N     0.19308   -2.21250   -0.03485
 77 N     0.03600   -1.84002    0.00965
 78 N    -0.16368   -1.87970    0.01097
 79 N     0.16710   -1.87587   -0.03874
 80 N    -0.02520   -1.83215   -0.04071
 81 Pb    0.29324    0.03268   -0.01778
 82 Pb   -0.26192   -0.23807   -0.02140
 83 Pb   -0.02385   -0.01633    0.16324
 84 Pb    0.02360    0.18273   -0.06752
 85 Pb   -0.36075    0.02358    0.02127
 86 Pb    0.33174   -0.26284    0.02561
 87 Pb   -0.01792   -0.00215   -0.19483
 88 Pb    0.01396    0.26194    0.06808

System changes: positions 

Initializing position-dependent things.

Density initialized from wave functions
         .-------Cl-----Pb-------------.  
        /|                             |  
       I |            Cl               |  
      /  |                             |  
     /   I   Cl     Pb  I              |  
    /    |               H    C    H   |  
   /     |     Cs          N    N      |  
  /      |       I        H     H      |  
 Pb  I   |          Cl  Pb             |  
 |    HI | C    H    HCl  C    H       |  
 |      N|   N         N    N          |  
 |     H I   H      PbH I   H          |  
 |       |     H           I  H    Pb  |  
 |       |H N  C NI H    H N  C N  H   |  
 |       | H     H        H     HI     |  
 |   Cl  .----------Cl---------Pb------.  
 |      /  H           Cl H           /   
 |    H/N  C N  H    H N  C N  H     /    
 |    /H     H        H     H       /     
 |   /                     Cl      Pb     
 |  /                             /       
 | /              I              /        
 |/                             /         
 *---------------------I-------*          

Positions:
   0 C      9.188679    9.618293    9.192158    ( 0.0000,  0.0000,  0.0000)
   1 C      9.192428    3.495570    9.193252    ( 0.0000,  0.0000,  0.0000)
   2 C      3.064766    3.495544    9.194216    ( 0.0000,  0.0000,  0.0000)
   3 C      9.190908    9.616666    3.065040    ( 0.0000,  0.0000,  0.0000)
   4 C      3.066124    9.616652    3.062957    ( 0.0000,  0.0000,  0.0000)
   5 C      9.192915    3.496248    3.063880    ( 0.0000,  0.0000,  0.0000)
   6 C      3.064281    3.496199    3.062913    ( 0.0000,  0.0000,  0.0000)
   7 Cl     6.124313    9.191511   -0.002188    ( 0.0000,  0.0000,  0.0000)
   8 Cl     6.123876    9.193384    6.130812    ( 0.0000,  0.0000,  0.0000)
   9 Cl     3.065213   -0.001903   -0.000953    ( 0.0000,  0.0000,  0.0000)
  10 Cl     9.190433    6.128478    0.000521    ( 0.0000,  0.0000,  0.0000)
  11 Cl     3.066840    6.130839   -0.000695    ( 0.0000,  0.0000,  0.0000)
  12 Cl     9.192132    0.000632    6.127846    ( 0.0000,  0.0000,  0.0000)
  13 Cl     6.129414    6.120979    9.195357    ( 0.0000,  0.0000,  0.0000)
  14 Cl     0.000219    6.122319    3.063009    ( 0.0000,  0.0000,  0.0000)
  15 Cl     6.128329    6.121656    3.061872    ( 0.0000,  0.0000,  0.0000)
  16 Cs     3.069287    9.191057    9.196533    ( 0.0000,  0.0000,  0.0000)
  17 H      9.192451   10.716367    9.191752    ( 0.0000,  0.0000,  0.0000)
  18 H     11.165069    9.617829    9.192660    ( 0.0000,  0.0000,  0.0000)
  19 H     10.440433    7.981625    9.193368    ( 0.0000,  0.0000,  0.0000)
  20 H      7.941249    7.978968    9.193326    ( 0.0000,  0.0000,  0.0000)
  21 H      7.219612    9.616648    9.192647    ( 0.0000,  0.0000,  0.0000)
  22 H      9.192782    4.589858    9.193802    ( 0.0000,  0.0000,  0.0000)
  23 H     11.160357    3.490843    9.193068    ( 0.0000,  0.0000,  0.0000)
  24 H     10.441493    1.851574    9.192157    ( 0.0000,  0.0000,  0.0000)
  25 H      7.944022    1.852662    9.192174    ( 0.0000,  0.0000,  0.0000)
  26 H      7.225245    3.491930    9.192993    ( 0.0000,  0.0000,  0.0000)
  27 H      3.064467    4.589970    9.193831    ( 0.0000,  0.0000,  0.0000)
  28 H      5.032051    3.491795    9.193000    ( 0.0000,  0.0000,  0.0000)
  29 H      4.313051    1.852644    9.193448    ( 0.0000,  0.0000,  0.0000)
  30 H      1.815827    1.851601    9.193459    ( 0.0000,  0.0000,  0.0000)
  31 H      1.096687    3.490671    9.193070    ( 0.0000,  0.0000,  0.0000)
  32 H      9.192797   10.716521    3.065421    ( 0.0000,  0.0000,  0.0000)
  33 H     11.160465    9.618467    3.064514    ( 0.0000,  0.0000,  0.0000)
  34 H     10.444121    7.977220    3.063869    ( 0.0000,  0.0000,  0.0000)
  35 H      7.941890    7.978128    3.063890    ( 0.0000,  0.0000,  0.0000)
  36 H      7.224235    9.618220    3.064532    ( 0.0000,  0.0000,  0.0000)
  37 H      3.064368   10.716479    3.063270    ( 0.0000,  0.0000,  0.0000)
  38 H      5.033107    9.618221    3.064086    ( 0.0000,  0.0000,  0.0000)
  39 H      4.315502    7.978086    3.063985    ( 0.0000,  0.0000,  0.0000)
  40 H      1.812885    7.977361    3.063959    ( 0.0000,  0.0000,  0.0000)
  41 H      1.096757    9.618348    3.064134    ( 0.0000,  0.0000,  0.0000)
  42 H      9.193047    4.590022    3.063408    ( 0.0000,  0.0000,  0.0000)
  43 H     11.160369    3.491347    3.064137    ( 0.0000,  0.0000,  0.0000)
  44 H     10.441124    1.853281    3.064997    ( 0.0000,  0.0000,  0.0000)
  45 H      7.944684    1.853036    3.064997    ( 0.0000,  0.0000,  0.0000)
  46 H      7.225405    3.491374    3.064195    ( 0.0000,  0.0000,  0.0000)
  47 H      3.064141    4.589983    3.063366    ( 0.0000,  0.0000,  0.0000)
  48 H      5.031929    3.491359    3.064180    ( 0.0000,  0.0000,  0.0000)
  49 H      4.312728    1.853005    3.063746    ( 0.0000,  0.0000,  0.0000)
  50 H      1.815849    1.853263    3.063717    ( 0.0000,  0.0000,  0.0000)
  51 H      1.096674    3.491332    3.064126    ( 0.0000,  0.0000,  0.0000)
  52 I      0.005909    9.190529   -0.004893    ( 0.0000,  0.0000,  0.0000)
  53 I      0.001158    3.067409    0.001367    ( 0.0000,  0.0000,  0.0000)
  54 I      6.127384    3.070000    0.000468    ( 0.0000,  0.0000,  0.0000)
  55 I      0.004220    9.193766    6.133599    ( 0.0000,  0.0000,  0.0000)
  56 I     -0.000775    3.064135    6.127198    ( 0.0000,  0.0000,  0.0000)
  57 I      6.129480    3.065595    6.128104    ( 0.0000,  0.0000,  0.0000)
  58 I      9.190999    0.000454    0.000586    ( 0.0000,  0.0000,  0.0000)
  59 I      3.066330   -0.001410    6.129884    ( 0.0000,  0.0000,  0.0000)
  60 I      9.189912    6.130616    6.127305    ( 0.0000,  0.0000,  0.0000)
  61 I      3.067344    6.131779    6.127967    ( 0.0000,  0.0000,  0.0000)
  62 I      0.001497   -0.017595    9.192921    ( 0.0000,  0.0000,  0.0000)
  63 I      6.126952   -0.019015    9.192955    ( 0.0000,  0.0000,  0.0000)
  64 I      0.006538    6.119804    9.195976    ( 0.0000,  0.0000,  0.0000)
  65 I      0.000184   -0.017456    3.064319    ( 0.0000,  0.0000,  0.0000)
  66 I      6.128360   -0.018617    3.064284    ( 0.0000,  0.0000,  0.0000)
  67 N     10.347902    9.011127    9.192147    ( 0.0000,  0.0000,  0.0000)
  68 N      8.032093    9.006661    9.192200    ( 0.0000,  0.0000,  0.0000)
  69 N     10.346383    2.881596    9.192185    ( 0.0000,  0.0000,  0.0000)
  70 N      8.037175    2.883740    9.192228    ( 0.0000,  0.0000,  0.0000)
  71 N      4.220085    2.883706    9.191994    ( 0.0000,  0.0000,  0.0000)
  72 N      1.910704    2.881595    9.191956    ( 0.0000,  0.0000,  0.0000)
  73 N     10.349623    9.005449    3.064977    ( 0.0000,  0.0000,  0.0000)
  74 N      8.033533    9.005640    3.064978    ( 0.0000,  0.0000,  0.0000)
  75 N      4.223713    9.005643    3.065427    ( 0.0000,  0.0000,  0.0000)
  76 N      1.907714    9.005517    3.065149    ( 0.0000,  0.0000,  0.0000)
  77 N     10.347976    2.883847    3.065023    ( 0.0000,  0.0000,  0.0000)
  78 N      8.037575    2.883747    3.064981    ( 0.0000,  0.0000,  0.0000)
  79 N      4.219607    2.883805    3.065208    ( 0.0000,  0.0000,  0.0000)
  80 N      1.909202    2.883899    3.065245    ( 0.0000,  0.0000,  0.0000)
  81 Pb     0.031779    0.001147   -0.002929    ( 0.0000,  0.0000,  0.0000)
  82 Pb     6.097109   -0.032542   -0.002669    ( 0.0000,  0.0000,  0.0000)
  83 Pb    -0.001462    6.126974    0.029614    ( 0.0000,  0.0000,  0.0000)
  84 Pb     6.130253    6.160851   -0.003484    ( 0.0000,  0.0000,  0.0000)
  85 Pb    -0.034930    0.000939    6.131556    ( 0.0000,  0.0000,  0.0000)
  86 Pb     6.163607   -0.032079    6.131310    ( 0.0000,  0.0000,  0.0000)
  87 Pb    -0.001543    6.127323    6.098997    ( 0.0000,  0.0000,  0.0000)
  88 Pb     6.130366    6.160805    6.131883    ( 0.0000,  0.0000,  0.0000)

Unit cell:
           periodic     x           y           z      points  spacing
  1. axis:    yes   12.257188    0.000000    0.000000    75     0.1634
  2. axis:    yes    0.000000   12.257188    0.000000    75     0.1634
  3. axis:    yes    0.000000    0.000000   12.257188    75     0.1634

  Lengths:  12.257188  12.257188  12.257188
  Angles:   90.000000  90.000000  90.000000

Effective grid spacing dv^(1/3) = 0.1634

                     log10-error:    total        iterations:
           time      wfs    density  energy       poisson
iter:   1  16:56:45  -0.65         -418.069919           
iter:   2  17:09:46  -2.09  -1.54  -416.749079           
iter:   3  17:22:47  -1.18  -1.57  -411.463952           
iter:   4  17:35:49  -2.25  -1.79  -411.348453           
iter:   5  17:48:50  -2.97  -1.88  -411.318235           
iter:   6  18:01:51  -2.24  -1.93  -410.856991           
iter:   7  18:14:52  -2.92  -2.13  -410.848768           
iter:   8  18:27:53  -2.84  -2.15  -410.917779           
iter:   9  18:40:55  -2.94  -2.07  -410.798115           
iter:  10  18:53:57  -4.17  -2.60  -410.800000           
iter:  11  19:06:58  -4.29  -2.61  -410.799053           
iter:  12  19:20:00  -4.00  -2.88  -410.799742           
iter:  13  19:33:04  -4.87  -3.06  -410.797834           
iter:  14  19:46:07  -5.16  -3.18  -410.798049           
iter:  15  19:59:07  -5.29  -3.29  -410.798191           
iter:  16  20:12:06  -6.24  -3.49  -410.798181           
iter:  17  20:25:06  -5.83  -3.49  -410.798189           
iter:  18  20:38:05  -6.85  -3.62  -410.798162           
iter:  19  20:51:05  -7.46  -3.64  -410.798126           
iter:  20  21:04:04  -7.28  -3.65  -410.798083           
iter:  21  21:17:02  -6.16  -3.66  -410.798007           
iter:  22  21:30:01  -5.84  -3.94  -410.798018           
iter:  23  21:43:00  -6.95  -3.93  -410.797987           
iter:  24  21:55:59  -6.60  -4.09  -410.797975           
iter:  25  22:08:58  -7.50  -4.26  -410.797970           

Converged after 25 iterations.

Dipole moment: (-0.954826, 13.989692, -0.934613) |e|*Ang

Energy contributions relative to reference atoms: (reference = -7794476.916501)

Kinetic:       +556.949506
Potential:     -590.263139
External:        +0.000000
XC:            -378.313733
Entropy (-ST):   -0.000000
Local:           +0.829396
--------------------------
Free energy:   -410.797970
Extrapolated:  -410.797970

Showing only first 2 kpts
 Kpt  Band  Eigenvalues  Occupancy
  0   209      1.72964    0.03125
  0   210      2.12142    0.03125
  0   211      3.45172    0.00000
  0   212      3.54377    0.00000

  1   209      1.69209    0.06250
  1   210      1.95834    0.06250
  1   211      3.62073    0.00000
  1   212      3.70266    0.00000


Fermi level: 2.76332

Gap: 1.330 eV
Transition (v -> c):
  (s=0, k=0, n=210, [0.00, 0.00, 0.00]) -> (s=0, k=0, n=211, [0.00, 0.00, 0.00])

Forces in eV/Ang:
  0 C    -0.00008   -0.00307   -0.01652
  1 C     0.00692   -0.01596    0.00663
  2 C    -0.00677   -0.01319    0.00865
  3 C     0.00317   -0.03669    0.01618
  4 C    -0.00134   -0.03973   -0.00791
  5 C    -0.00382    0.01395   -0.00756
  6 C     0.00271    0.01207   -0.00939
  7 Cl   -0.11051   -0.02412   -0.06438
  8 Cl   -0.09864    0.01052    0.06369
  9 Cl    0.02092   -0.05257   -0.02889
 10 Cl   -0.04978    0.01067    0.02359
 11 Cl    0.05385    0.07015   -0.00971
 12 Cl   -0.01627    0.01106   -0.01651
 13 Cl    0.01735   -0.16244    0.04987
 14 Cl    0.00175   -0.16498   -0.02575
 15 Cl   -0.00295   -0.16242   -0.04775
 16 Cs    0.09760   -0.04710    0.07165
 17 H    -0.04282   -0.21951   -0.02022
 18 H     0.23133   -0.29169   -0.00358
 19 H     0.20360    0.53093    0.00997
 20 H    -0.29364    0.46224    0.00888
 21 H    -0.33602   -0.30756   -0.00351
 22 H     0.00122   -0.09173    0.02287
 23 H     0.18129   -0.24053    0.00411
 24 H     0.19627    0.52806   -0.00914
 25 H    -0.21919    0.57266   -0.00858
 26 H    -0.20625   -0.21409    0.00307
 27 H    -0.00063   -0.09171    0.02529
 28 H     0.20754   -0.21751    0.00443
 29 H     0.21598    0.57067    0.00166
 30 H    -0.19206    0.52667    0.00164
 31 H    -0.18356   -0.24275    0.00532
 32 H    -0.00946   -0.28178    0.01975
 33 H     0.18225   -0.27382    0.00327
 34 H     0.26829    0.47248   -0.00795
 35 H    -0.28899    0.44838   -0.00793
 36 H    -0.24928   -0.25906    0.00330
 37 H     0.00877   -0.28095   -0.02109
 38 H     0.24750   -0.26082   -0.00258
 39 H     0.29154    0.45060   -0.00256
 40 H    -0.27038    0.47141   -0.00348
 41 H    -0.18169   -0.27421   -0.00257
 42 H    -0.00223   -0.08468   -0.02213
 43 H     0.19983   -0.22798   -0.00360
 44 H     0.20475    0.56829    0.00838
 45 H    -0.20180    0.57448    0.00831
 46 H    -0.20134   -0.22373   -0.00311
 47 H     0.00222   -0.08410   -0.02480
 48 H     0.20159   -0.22419   -0.00464
 49 H     0.20537    0.57513   -0.00147
 50 H    -0.20836    0.56847   -0.00181
 51 H    -0.20041   -0.22836   -0.00508
 52 I     0.14209   -0.03635   -0.12492
 53 I     0.02602    0.04643    0.02920
 54 I    -0.02762    0.09157    0.00865
 55 I     0.10555    0.01149    0.12651
 56 I    -0.01261   -0.00351   -0.02916
 57 I     0.01575    0.01969   -0.00920
 58 I    -0.03122    0.01079    0.01111
 59 I     0.03568   -0.03634    0.03811
 60 I    -0.04460    0.05380   -0.02805
 61 I     0.04882    0.08096   -0.00945
 62 I     0.04361   -0.40916    0.00204
 63 I    -0.04782   -0.44117    0.00273
 64 I     0.14929   -0.20144    0.04838
 65 I     0.00695   -0.40630   -0.00045
 66 I    -0.00827   -0.42728   -0.00105
 67 N    -0.22632   -0.00935   -0.01441
 68 N     0.12137   -0.07616   -0.01500
 69 N    -0.17339   -0.00013   -0.01577
 70 N     0.14123    0.00234   -0.01538
 71 N    -0.14518    0.00391   -0.00768
 72 N     0.17860   -0.00101   -0.00787
 73 N    -0.22310   -0.10991    0.01271
 74 N     0.19190   -0.10756    0.01469
 75 N    -0.18941   -0.10732    0.01103
 76 N     0.22768   -0.10715    0.00708
 77 N    -0.17635    0.01466    0.01565
 78 N     0.17059    0.01028    0.01530
 79 N    -0.16803    0.00966    0.00806
 80 N     0.17530    0.01498    0.00823
 81 Pb    0.59867    0.02472   -0.05698
 82 Pb   -0.58965   -0.59136   -0.05453
 83 Pb   -0.02761   -0.02625    0.52566
 84 Pb    0.02922    0.57958   -0.08033
 85 Pb   -0.66047    0.02007    0.05749
 86 Pb    0.65680   -0.59285    0.05531
 87 Pb   -0.02793   -0.01836   -0.53165
 88 Pb    0.02943    0.59533    0.07658

System changes: positions 

Initializing position-dependent things.

Density initialized from wave functions
         .-------Cl-----Pb-------------.  
        /|                             |  
       I |            Cl               |  
      /  |                             |  
     /   I   Cl     Pb  I              |  
    /    |               H    C    H   |  
   /     |     Cs          N    N      |  
  /      |       I        H     H      |  
 Pb  I   |          Cl  Pb             |  
 |    HI | CH   H    HCl  CH   H       |  
 |      N|   N         N    N          |  
 |     H I   H      PbH I   H          |  
 |       |     H           I  H    Pb  |  
[...]
  24 H     10.462302    1.911079    9.201856    ( 0.0000,  0.0000,  0.0000)
  25 H      7.895630    1.929015    9.199933    ( 0.0000,  0.0000,  0.0000)
  26 H      7.198047    3.539231    9.198807    ( 0.0000,  0.0000,  0.0000)
  27 H      3.057765    4.618632    9.214366    ( 0.0000,  0.0000,  0.0000)
  28 H      5.061351    3.537539    9.199099    ( 0.0000,  0.0000,  0.0000)
  29 H      4.359268    1.928880    9.170045    ( 0.0000,  0.0000,  0.0000)
  30 H      1.801720    1.908294    9.168195    ( 0.0000,  0.0000,  0.0000)
  31 H      1.087124    3.517133    9.198491    ( 0.0000,  0.0000,  0.0000)
  32 H      9.179477   10.662815    3.065174    ( 0.0000,  0.0000,  0.0000)
  33 H     11.168953    9.603797    3.062771    ( 0.0000,  0.0000,  0.0000)
  34 H     10.484772    7.970931    3.059575    ( 0.0000,  0.0000,  0.0000)
  35 H      7.867808    7.974625    3.058511    ( 0.0000,  0.0000,  0.0000)
  36 H      7.204197    9.597009    3.061218    ( 0.0000,  0.0000,  0.0000)
  37 H      3.079168   10.662667    3.069354    ( 0.0000,  0.0000,  0.0000)
  38 H      5.054599    9.597020    3.068779    ( 0.0000,  0.0000,  0.0000)
  39 H      4.390117    7.973727    3.063562    ( 0.0000,  0.0000,  0.0000)
  40 H      1.774550    7.971875    3.064120    ( 0.0000,  0.0000,  0.0000)
  41 H      1.092242    9.602550    3.067540    ( 0.0000,  0.0000,  0.0000)
  42 H      9.186529    4.634005    3.044997    ( 0.0000,  0.0000,  0.0000)
  43 H     11.180723    3.527367    3.058815    ( 0.0000,  0.0000,  0.0000)
  44 H     10.464284    1.928007    3.055308    ( 0.0000,  0.0000,  0.0000)
  45 H      7.912824    1.931677    3.057438    ( 0.0000,  0.0000,  0.0000)
  46 H      7.197894    3.537201    3.058379    ( 0.0000,  0.0000,  0.0000)
  47 H      3.070664    4.633722    3.043229    ( 0.0000,  0.0000,  0.0000)
  48 H      5.059222    3.537709    3.057742    ( 0.0000,  0.0000,  0.0000)
  49 H      4.345485    1.931940    3.087535    ( 0.0000,  0.0000,  0.0000)
  50 H      1.791823    1.928308    3.088794    ( 0.0000,  0.0000,  0.0000)
  51 H      1.076664    3.527782    3.058401    ( 0.0000,  0.0000,  0.0000)
  52 I      0.119419    9.173988   -0.091764    ( 0.0000,  0.0000,  0.0000)
  53 I      0.015966    3.063873    0.028649    ( 0.0000,  0.0000,  0.0000)
  54 I      6.100792    3.082369    0.008457    ( 0.0000,  0.0000,  0.0000)
  55 I      0.093113    9.182816    6.217745    ( 0.0000,  0.0000,  0.0000)
  56 I     -0.002976    3.051042    6.102399    ( 0.0000,  0.0000,  0.0000)
  57 I      6.149953    3.056590    6.120110    ( 0.0000,  0.0000,  0.0000)
  58 I      9.183077    0.000615    0.010814    ( 0.0000,  0.0000,  0.0000)
  59 I      3.084821   -0.034958    6.153589    ( 0.0000,  0.0000,  0.0000)
  60 I      9.189714    6.180744    6.096960    ( 0.0000,  0.0000,  0.0000)
  61 I      3.079627    6.191713    6.108711    ( 0.0000,  0.0000,  0.0000)
  62 I      0.048378   -0.221734    9.192452    ( 0.0000,  0.0000,  0.0000)
  63 I      6.071808   -0.250289    9.193252    ( 0.0000,  0.0000,  0.0000)
  64 I      0.082354    6.015473    9.204791    ( 0.0000,  0.0000,  0.0000)
  65 I      0.003320   -0.214732    3.067129    ( 0.0000,  0.0000,  0.0000)
  66 I      6.124754   -0.227169    3.067408    ( 0.0000,  0.0000,  0.0000)
  67 N     10.323562    9.020634    9.187029    ( 0.0000,  0.0000,  0.0000)
  68 N      7.991965    8.998144    9.184108    ( 0.0000,  0.0000,  0.0000)
  69 N     10.346087    2.924536    9.186500    ( 0.0000,  0.0000,  0.0000)
  70 N      8.020442    2.942155    9.188196    ( 0.0000,  0.0000,  0.0000)
  71 N      4.237606    2.943261    9.189385    ( 0.0000,  0.0000,  0.0000)
  72 N      1.914965    2.922334    9.191411    ( 0.0000,  0.0000,  0.0000)
  73 N     10.345372    8.987748    3.070387    ( 0.0000,  0.0000,  0.0000)
  74 N      8.006820    8.980110    3.073113    ( 0.0000,  0.0000,  0.0000)
  75 N      4.251024    8.980239    3.067225    ( 0.0000,  0.0000,  0.0000)
  76 N      1.914184    8.987456    3.066213    ( 0.0000,  0.0000,  0.0000)
  77 N     10.349550    2.941791    3.070474    ( 0.0000,  0.0000,  0.0000)
  78 N      8.025939    2.945776    3.068676    ( 0.0000,  0.0000,  0.0000)
  79 N      4.231286    2.946001    3.067578    ( 0.0000,  0.0000,  0.0000)
  80 N      1.907538    2.941905    3.066577    ( 0.0000,  0.0000,  0.0000)
  81 Pb     0.225085    0.006825   -0.011241    ( 0.0000,  0.0000,  0.0000)
  82 Pb     5.938169   -0.206390   -0.011653    ( 0.0000,  0.0000,  0.0000)
  83 Pb    -0.020404    6.128194    0.138305    ( 0.0000,  0.0000,  0.0000)
  84 Pb     6.133662    6.268706   -0.030803    ( 0.0000,  0.0000,  0.0000)
  85 Pb    -0.251528    0.001507    6.141676    ( 0.0000,  0.0000,  0.0000)
  86 Pb     6.334672   -0.198561    6.142948    ( 0.0000,  0.0000,  0.0000)
  87 Pb    -0.009037    6.129003    5.954061    ( 0.0000,  0.0000,  0.0000)
  88 Pb     6.135836    6.315715    6.169538    ( 0.0000,  0.0000,  0.0000)

Unit cell:
           periodic     x           y           z      points  spacing
  1. axis:    yes   12.257188    0.000000    0.000000    75     0.1634
  2. axis:    yes    0.000000   12.257188    0.000000    75     0.1634
  3. axis:    yes    0.000000    0.000000   12.257188    75     0.1634

  Lengths:  12.257188  12.257188  12.257188
  Angles:   90.000000  90.000000  90.000000

Effective grid spacing dv^(1/3) = 0.1634

                     log10-error:    total        iterations:
           time      wfs    density  energy       poisson
iter:   1  08:26:01  -2.36         -411.862822           
iter:   2  08:39:02  -3.50  -2.51  -411.843486           
iter:   3  08:52:04  -3.20  -2.56  -411.797346           
iter:   4  09:05:05  -4.49  -2.86  -411.797826           
iter:   5  09:18:06  -4.50  -2.91  -411.795775           
iter:   6  09:31:06  -4.39  -3.11  -411.793728           
iter:   7  09:44:06  -5.16  -3.33  -411.793560           
iter:   8  09:57:08  -5.71  -3.58  -411.793591           
iter:   9  10:10:10  -5.78  -3.79  -411.793592           
iter:  10  10:23:12  -6.26  -3.86  -411.793575           
iter:  11  10:36:14  -7.25  -4.22  -411.793573           
iter:  12  10:49:15  -6.79  -4.24  -411.793573           
iter:  13  11:02:18  -7.34  -4.43  -411.793571           
iter:  14  11:15:19  -8.42  -4.77  -411.793571           

Converged after 14 iterations.

Dipole moment: (-33.673522, 130.859800, 0.520290) |e|*Ang

Energy contributions relative to reference atoms: (reference = -7794476.916501)

Kinetic:       +552.788539
Potential:     -586.522121
External:        +0.000000
XC:            -378.897922
Entropy (-ST):   -0.000000
Local:           +0.837933
--------------------------
Free energy:   -411.793571
Extrapolated:  -411.793571

Showing only first 2 kpts
 Kpt  Band  Eigenvalues  Occupancy
  0   209      1.69601    0.03125
  0   210      2.05062    0.03125
  0   211      3.47336    0.00000
  0   212      3.58281    0.00000

  1   209      1.66022    0.06250
  1   210      1.91214    0.06250
  1   211      3.65449    0.00000
  1   212      3.70031    0.00000


Fermi level: 2.73957

Gap: 1.423 eV
Transition (v -> c):
  (s=0, k=0, n=210, [0.00, 0.00, 0.00]) -> (s=0, k=0, n=211, [0.00, 0.00, 0.00])

Forces in eV/Ang:
  0 C     0.81896    0.08508    0.01304
  1 C    -0.17737    0.17148    0.01268
  2 C     0.21893    0.16642   -0.00718
  3 C     0.23921   -0.03604   -0.01214
  4 C    -0.17052   -0.02039    0.02138
  5 C    -0.26399    0.19848   -0.01307
  6 C     0.25302    0.19743    0.00764
  7 Cl   -0.08313   -0.01324   -0.04982
  8 Cl   -0.01363   -0.04075    0.03609
  9 Cl    0.00458   -0.03751   -0.00782
 10 Cl    0.04072    0.04386    0.03992
 11 Cl    0.03743    0.05084    0.01676
 12 Cl    0.00129   -0.03132   -0.00252
 13 Cl    0.01715   -0.04323   -0.01176
 14 Cl   -0.00072   -0.06219   -0.01456
 15 Cl    0.00332   -0.02450    0.00525
 16 Cs    0.01646   -0.05214    0.02521
 17 H    -0.10750    0.15907    0.00232
 18 H    -0.32116   -0.21192    0.00486
 19 H     0.01733    0.22322   -0.00752
 20 H    -0.15108   -0.25195    0.00256
 21 H    -0.36061    0.07338    0.00996
 22 H     0.00650    0.07341   -0.00563
 23 H     0.00254   -0.02870    0.00659
 24 H     0.06121   -0.03429    0.01256
 25 H    -0.08439    0.02020    0.00814
 26 H     0.03539   -0.01144    0.00829
 27 H    -0.00938    0.08704    0.03725
 28 H    -0.03290   -0.01076   -0.00033
 29 H     0.08760    0.04030   -0.03210
 30 H    -0.05127   -0.03270   -0.03543
 31 H    -0.00357   -0.03416    0.00010
 32 H    -0.06084    0.08096   -0.00387
 33 H    -0.30673   -0.25219   -0.00435
 34 H     0.00471    0.22637    0.00417
 35 H    -0.12675   -0.31578   -0.00361
 36 H    -0.28839    0.06037   -0.00916
 37 H     0.05475    0.07625    0.01268
 38 H     0.24645    0.03305    0.00866
 39 H     0.11855   -0.26108   -0.01050
 40 H    -0.00787    0.19074   -0.00670
 41 H     0.26283   -0.22878    0.01010
 42 H     0.01704    0.00230    0.00117
 43 H    -0.07981   -0.06510   -0.00886
 44 H     0.06184   -0.01267   -0.01190
 45 H    -0.09380    0.01119   -0.00826
 46 H     0.08214   -0.06555   -0.00800
 47 H    -0.01687    0.00742   -0.03830
 48 H    -0.08143   -0.06608    0.00076
 49 H     0.09288    0.01729    0.03433
 50 H    -0.06198   -0.01218    0.03715
 51 H     0.07350   -0.06171   -0.00227
 52 I     0.08454   -0.01775   -0.04254
 53 I     0.01065    0.00305    0.00860
 54 I    -0.02142   -0.01193   -0.00124
 55 I     0.07203   -0.01195    0.03955
 56 I     0.00761   -0.01362   -0.00408
 57 I     0.02120   -0.01487    0.00156
 58 I     0.01233   -0.00804    0.00192
 59 I     0.00549   -0.01036   -0.00090
 60 I    -0.00178    0.05476   -0.02799
 61 I     0.01187    0.02987   -0.02758
 62 I     0.04475    0.01543    0.00229
 63 I    -0.06406   -0.00053    0.00579
 64 I    -0.00473   -0.01069   -0.01809
 65 I     0.00250    0.00451    0.00048
 66 I    -0.00030    0.02699   -0.00003
 67 N    -0.05048   -0.06787    0.00967
 68 N    -0.00782   -0.18549    0.00571
 69 N     0.08839   -0.02479    0.01581
 70 N     0.02173    0.02841    0.02141
 71 N    -0.01849    0.01415   -0.01384
 72 N    -0.10455   -0.04733   -0.01059
 73 N     0.15963   -0.11794   -0.00924
 74 N     0.30379    0.11178   -0.00407
 75 N    -0.26777    0.08141    0.00677
 76 N    -0.13257   -0.11917   -0.00050
 77 N     0.14318    0.06615   -0.01638
 78 N     0.08045    0.15512   -0.02249
 79 N    -0.06835    0.14605    0.01143
 80 N    -0.13558    0.06452    0.01104
 81 Pb   -0.06792   -0.02481   -0.01030
 82 Pb    0.10763    0.01595   -0.00406
 83 Pb   -0.03823    0.00902   -0.06524
 84 Pb   -0.05158   -0.06696    0.03584
 85 Pb    0.06968   -0.03006    0.01130
 86 Pb   -0.15344    0.07779    0.00616
 87 Pb    0.00638   -0.00713    0.05127
 88 Pb    0.00078   -0.09113    0.00392

System changes: positions 

Initializing position-dependent things.

Density initialized from wave functions
         .Pb----Cl------Pb-------------.  
        /|                             |  
       /I|           Cl                |  
      /  |                             |  
     /   I          Pb I               |  
    /    |               H    H   H    |  
   /     |     Cs         N   C N      |  
  /      |       I       H      H     Pb  
 *   I   |          Cl  Pb     Cl      |  
 |    HI | CH   H    HCl  CH   H       |  
 |      N|   N        HN    H          |  
 |     H I   H      Pb  I              |  
 |       |      H           I H    Pb  |  
 |       |H N  C N  H    HN   C N  H   |  
 | I     |H      HI      H      H      |  
 |       .----------Cl---------I---Cl--.  
 |      /   H              H          /   
 |    H/N  C N  H    H N  C N  H     /    
 |    /H     H        H     H       /     
 |   /       Cl             Cl     /b     
 |  /                             /       
 | I              I              /        
 |/                             /         
 *-----------------------------*          

Positions:
   0 C      9.142240    9.577601    9.190048    ( 0.0000,  0.0000,  0.0000)
   1 C      9.176685    3.565440    9.203407    ( 0.0000,  0.0000,  0.0000)
   2 C      3.085813    3.567345    9.204773    ( 0.0000,  0.0000,  0.0000)
   3 C      9.160322    9.528222    3.066287    ( 0.0000,  0.0000,  0.0000)
   4 C      3.101752    9.529670    3.075368    ( 0.0000,  0.0000,  0.0000)
   5 C      9.172374    3.595736    3.052582    ( 0.0000,  0.0000,  0.0000)
   6 C      3.084330    3.595665    3.052657    ( 0.0000,  0.0000,  0.0000)
   7 Cl     5.896458    9.178517   -0.121891    ( 0.0000,  0.0000,  0.0000)
   8 Cl     6.050979    9.159215    6.232308    ( 0.0000,  0.0000,  0.0000)
   9 Cl     3.086284   -0.127820   -0.042489    ( 0.0000,  0.0000,  0.0000)
  10 Cl     9.182392    6.231960    0.100038    ( 0.0000,  0.0000,  0.0000)
  11 Cl     3.133504    6.308315    0.043177    ( 0.0000,  0.0000,  0.0000)
  12 Cl     9.184824   -0.057152    6.112080    ( 0.0000,  0.0000,  0.0000)
  13 Cl     6.182555    6.045346    9.217171    ( 0.0000,  0.0000,  0.0000)
  14 Cl    -0.000073    5.939378    3.040624    ( 0.0000,  0.0000,  0.0000)
  15 Cl     6.133388    6.094000    3.041073    ( 0.0000,  0.0000,  0.0000)
  16 Cs     3.130491    9.074290    9.254615    ( 0.0000,  0.0000,  0.0000)
  17 H      9.115050   10.670674    9.197900    ( 0.0000,  0.0000,  0.0000)
  18 H     11.121386    9.605164    9.198831    ( 0.0000,  0.0000,  0.0000)
  19 H     10.450690    8.001085    9.200685    ( 0.0000,  0.0000,  0.0000)
  20 H      7.837765    7.966463    9.203431    ( 0.0000,  0.0000,  0.0000)
  21 H      7.135174    9.555955    9.203607    ( 0.0000,  0.0000,  0.0000)
  22 H      9.199308    4.656455    9.223358    ( 0.0000,  0.0000,  0.0000)
  23 H     11.167065    3.548371    9.205173    ( 0.0000,  0.0000,  0.0000)
  24 H     10.477091    1.946618    9.220473    ( 0.0000,  0.0000,  0.0000)
  25 H      7.850688    1.985756    9.214234    ( 0.0000,  0.0000,  0.0000)
  26 H      7.192934    3.597881    9.207156    ( 0.0000,  0.0000,  0.0000)
  27 H      3.052651    4.658186    9.241338    ( 0.0000,  0.0000,  0.0000)
  28 H      5.070475    3.594920    9.204512    ( 0.0000,  0.0000,  0.0000)
  29 H      4.404255    1.988104    9.131660    ( 0.0000,  0.0000,  0.0000)
  30 H      1.796451    1.940460    9.126612    ( 0.0000,  0.0000,  0.0000)
  31 H      1.099974    3.541744    9.202887    ( 0.0000,  0.0000,  0.0000)
  32 H      9.158235   10.637840    3.056469    ( 0.0000,  0.0000,  0.0000)
  33 H     11.152358    9.570673    3.056995    ( 0.0000,  0.0000,  0.0000)
  34 H     10.501939    7.943333    3.058024    ( 0.0000,  0.0000,  0.0000)
  35 H      7.817538    7.935426    3.054915    ( 0.0000,  0.0000,  0.0000)
  36 H      7.186705    9.572698    3.053156    ( 0.0000,  0.0000,  0.0000)
  37 H      3.102799   10.638024    3.088213    ( 0.0000,  0.0000,  0.0000)
  38 H      5.074174    9.570822    3.077744    ( 0.0000,  0.0000,  0.0000)
  39 H      4.440322    7.935931    3.059919    ( 0.0000,  0.0000,  0.0000)
  40 H      1.761597    7.943738    3.063072    ( 0.0000,  0.0000,  0.0000)
  41 H      1.111310    9.568031    3.076030    ( 0.0000,  0.0000,  0.0000)
  42 H      9.186021    4.692990    3.031392    ( 0.0000,  0.0000,  0.0000)
  43 H     11.177912    3.578542    3.050605    ( 0.0000,  0.0000,  0.0000)
  44 H     10.472407    1.971940    3.036973    ( 0.0000,  0.0000,  0.0000)
  45 H      7.879332    1.978892    3.043286    ( 0.0000,  0.0000,  0.0000)
  46 H      7.189351    3.595652    3.050038    ( 0.0000,  0.0000,  0.0000)
  47 H      3.071137    4.692662    3.015979    ( 0.0000,  0.0000,  0.0000)
  48 H      5.067803    3.595917    3.051886    ( 0.0000,  0.0000,  0.0000)
  49 H      4.379213    1.980807    3.126998    ( 0.0000,  0.0000,  0.0000)
  50 H      1.783553    1.973616    3.130699    ( 0.0000,  0.0000,  0.0000)
  51 H      1.079532    3.578842    3.052655    ( 0.0000,  0.0000,  0.0000)
  52 I      0.234650    9.156045   -0.168976    ( 0.0000,  0.0000,  0.0000)
  53 I      0.028266    3.053230    0.053337    ( 0.0000,  0.0000,  0.0000)
  54 I      6.070737    3.068557    0.014288    ( 0.0000,  0.0000,  0.0000)
  55 I      0.186293    9.165972    6.290153    ( 0.0000,  0.0000,  0.0000)
  56 I      0.001225    3.032217    6.082165    ( 0.0000,  0.0000,  0.0000)
  57 I      6.176593    3.036368    6.114547    ( 0.0000,  0.0000,  0.0000)
  58 I      9.186283   -0.006023    0.019701    ( 0.0000,  0.0000,  0.0000)
  59 I      3.099100   -0.067573    6.169805    ( 0.0000,  0.0000,  0.0000)
  60 I      9.197487    6.239637    6.061875    ( 0.0000,  0.0000,  0.0000)
  61 I      3.087373    6.246420    6.080651    ( 0.0000,  0.0000,  0.0000)
  62 I      0.102565   -0.328796    9.190515    ( 0.0000,  0.0000,  0.0000)
  63 I      6.002988   -0.383993    9.193271    ( 0.0000,  0.0000,  0.0000)
  64 I      0.121968    5.951060    9.196124    ( 0.0000,  0.0000,  0.0000)
  65 I      0.005779   -0.316991    3.072223    ( 0.0000,  0.0000,  0.0000)
  66 I      6.122873   -0.330137    3.072918    ( 0.0000,  0.0000,  0.0000)
  67 N     10.291134    9.021210    9.188667    ( 0.0000,  0.0000,  0.0000)
  68 N      7.959984    8.960474    9.183723    ( 0.0000,  0.0000,  0.0000)
  69 N     10.344116    2.957222    9.190799    ( 0.0000,  0.0000,  0.0000)
  70 N      8.016942    2.983775    9.196419    ( 0.0000,  0.0000,  0.0000)
  71 N      4.243862    2.986056    9.183313    ( 0.0000,  0.0000,  0.0000)
  72 N      1.921271    2.950665    9.189177    ( 0.0000,  0.0000,  0.0000)
  73 N     10.341581    8.960688    3.070447    ( 0.0000,  0.0000,  0.0000)
  74 N      8.000779    8.957333    3.074094    ( 0.0000,  0.0000,  0.0000)
  75 N      4.259565    8.955340    3.069519    ( 0.0000,  0.0000,  0.0000)
  76 N      1.921795    8.959680    3.065965    ( 0.0000,  0.0000,  0.0000)
  77 N     10.349982    2.986310    3.066494    ( 0.0000,  0.0000,  0.0000)
  78 N      8.026035    2.998725    3.060350    ( 0.0000,  0.0000,  0.0000)
  79 N      4.231751    2.998939    3.073217    ( 0.0000,  0.0000,  0.0000)
  80 N      1.907735    2.986858    3.070476    ( 0.0000,  0.0000,  0.0000)
  81 Pb     0.228959   -0.001583   -0.016742    ( 0.0000,  0.0000,  0.0000)
  82 Pb     5.986781   -0.215013   -0.015751    ( 0.0000,  0.0000,  0.0000)
  83 Pb    -0.041797    6.139530    0.070441    ( 0.0000,  0.0000,  0.0000)
  84 Pb     6.111226    6.184361   -0.026419    ( 0.0000,  0.0000,  0.0000)
  85 Pb    -0.256366   -0.012751    6.149517    ( 0.0000,  0.0000,  0.0000)
  86 Pb     6.259162   -0.172531    6.150713    ( 0.0000,  0.0000,  0.0000)
  87 Pb    -0.005536    6.132519    5.973683    ( 0.0000,  0.0000,  0.0000)
  88 Pb     6.132717    6.270566    6.191426    ( 0.0000,  0.0000,  0.0000)

Unit cell:
           periodic     x           y           z      points  spacing
  1. axis:    yes   12.257188    0.000000    0.000000    75     0.1634
  2. axis:    yes    0.000000   12.257188    0.000000    75     0.1634
  3. axis:    yes    0.000000    0.000000   12.257188    75     0.1634

  Lengths:  12.257188  12.257188  12.257188
  Angles:   90.000000  90.000000  90.000000

Effective grid spacing dv^(1/3) = 0.1634

                     log10-error:    total        iterations:
           time      wfs    density  energy       poisson
iter:   1  11:35:49  -1.32         -411.967298           
iter:   2  11:48:50  -2.44  -2.10  -411.923026           
iter:   3  12:01:52  -2.49  -2.13  -411.741950           
iter:   4  12:14:53  -3.66  -2.38  -411.741328           
iter:   5  12:27:54  -3.40  -2.40  -411.733059           
iter:   6  12:40:54  -3.36  -2.67  -411.723751           
iter:   7  12:53:54  -4.30  -2.84  -411.720288           
iter:   8  13:06:54  -4.59  -2.99  -411.719764           
iter:   9  13:19:54  -5.33  -3.31  -411.719783           
iter:  10  13:32:53  -5.22  -3.40  -411.719533           
iter:  11  13:45:53  -6.24  -3.78  -411.719523           
iter:  12  13:58:53  -6.37  -3.80  -411.719520           
iter:  13  14:11:53  -6.14  -3.94  -411.719537           
